link,id,space_group_core,space_group_shell,core,shell,h_range_max_koe,chemical formula,Tb,TN,Tc,c1,c2,x,y,z,shape,temperature_k,sat_em_g,coer_oe,mr (emu/g),exc_bias_oe,exc_dir,ver_shift_emu_g,ver_s_dir,fc_field_t
10.1016/j.matpr.2019.12.230,1064,92,167,Fe2O3,Fe2O3,50,Fe2O3-Fe2O3,200,948,850,Fe2O3,Fe2O3,20,20,20,1,200,39,727.065,5.075,51.077,0,0.437,0,1
10.1016/j.matpr.2019.12.230,1065,92,167,Fe2O3,Fe2O3,50,Fe2O3-Fe2O3,200,948,850,Fe2O3,Fe2O3,20,20,20,1,200,39,599.9095,4.275,110.8525,0,0.725,1,2
10.1016/j.matpr.2019.12.230,1066,92,167,Fe2O3,Fe2O3,50,Fe2O3-Fe2O3,200,948,850,Fe2O3,Fe2O3,20,20,20,1,200,39,519.4865,3.5,69.4235,0,0.6,1,3
10.1016/j.matpr.2019.12.230,1067,92,167,Fe2O3,Fe2O3,50,Fe2O3-Fe2O3,200,948,850,Fe2O3,Fe2O3,20,20,20,1,200,39,517.314,3.478,30.414,0,0.289,1,4
10.1039/D1RA01902C,1068,225,225,Fe3O4,NiO,15,Fe3O4-NiO,289,523,858,Fe3O4,NiO,50.17,50.17,50.17,1,250,42.9,66.89,3.003,16.68,0,,,
10.1039/D1RA01902C,1069,225,225,Fe3O4,NiO,15,Fe3O4-NiO,289,523,858,Fe3O4,NiO,50.17,50.17,50.17,1,220,43.29,73.79,3.20346,54.23,0,,,
10.1039/D1RA01902C,1070,225,225,Fe3O4,NiO,15,Fe3O4-NiO,289,523,858,Fe3O4,NiO,50.17,50.17,50.17,1,200,43.65,82.09,3.492,13.35,0,,,
10.1039/D1RA01902C,1071,225,225,Fe3O4,NiO,15,Fe3O4-NiO,289,523,858,Fe3O4,NiO,50.17,50.17,50.17,1,160,44.29,100.23,4.429,11.49,1,,,
10.1039/D1RA01902C,1072,225,225,Fe3O4,NiO,15,Fe3O4-NiO,289,523,858,Fe3O4,NiO,50.17,50.17,50.17,1,120,44.8,123.11,5.376,32.66,1,,,
10.1039/D1RA01902C,1073,225,225,Fe3O4,NiO,15,Fe3O4-NiO,289,523,858,Fe3O4,NiO,50.17,50.17,50.17,1,60,45.18,146.18,5.8734,101.63,1,,,
10.1007/s00339-020-04176-z,1074,221,167,FeCo,Fe2O3,10,FeCo-Fe2O3,30,960,1390,FeCo,Fe2O3,200,200,200,3,300,206.45,235.5,16,11.5,0,5,1,0.5
10.1007/s00339-020-04176-z,1075,221,167,FeCo,Fe2O3,10,FeCo-Fe2O3,30,960,1390,FeCo,Fe2O3,200,200,200,3,15,213,152.845,19.5,15.405,0,1.9,1,0.5
10.1007/s00339-020-04176-z,1076,221,167,FeCo,Fe2O3,10,FeCo-Fe2O3,30,960,1390,FeCo,Fe2O3,200,200,200,3,300,135.1325,90.314,17.5,6.544,0,6.5,1,0.5
10.1007/s00339-020-04176-z,1077,221,167,FeCo,Fe2O3,10,FeCo-Fe2O3,30,960,1390,FeCo,Fe2O3,200,200,200,3,15,139.56,239.5,,34.5,0,,1,0.5
10.1007/s00339-020-04176-z,1078,221,167,FeCo,Fe2O3,10,FeCo-Fe2O3,30,960,1390,FeCo,Fe2O3,200,200,200,3,300,187.2,109.185,13.37,9.937,0,2.37,1,0.5
10.1007/s00339-020-04176-z,1079,221,167,FeCo,Fe2O3,10,FeCo-Fe2O3,30,960,1390,FeCo,Fe2O3,200,200,200,3,15,188.9445,170.5,12.5,55.5,0,0.873,1,0.5
10.1007/s00339-020-04176-z,1080,221,167,FeCo,Fe2O3,10,FeCo-Fe2O3,30,960,1390,FeCo,Fe2O3,200,200,200,3,300,174.4,578.358,52.5,0,1,4.815,1,0.5
10.1007/s00339-020-04176-z,1081,221,167,FeCo,Fe2O3,10,FeCo-Fe2O3,30,960,1390,FeCo,Fe2O3,200,200,200,3,15,174.4,570.5,71.5,233.5,0,16.5,1,0.5
10.1021/acsami.1c02855,1082,225,141,NiO,Mn3O4,20,NiO-Mn3O4,90,350,108,NiO,Mn3O4,29.34,29.34,29.34,1,5,0.55,511.3,0.08,165.5,0,,,2
10.1021/acsami.1c02855,1083,225,141,NiO,Mn3O4,20,NiO-Mn3O4,103,350,63,NiO,Mn3O4,29.69,29.69,29.69,1,5,1.32,934.3,0.29,620.8,0,0.17,1,2
10.1021/acsami.1c02855,1084,225,141,NiO,Mn3O4,20,NiO-Mn3O4,100,350,63,NiO,Mn3O4,28.74,28.74,28.74,1,5,1.67,826,0.26,602,0,,,2
10.1021/acsami.1c02855,1085,225,141,NiO,Mn3O4,20,NiO-Mn3O4,102,350,65,NiO,Mn3O4,29.24,29.24,29.24,1,5,0.91,1530,0.22,1670.9,0,0.2,1,2
10.1021/acsami.1c02855,1086,225,141,NiO,Mn3O4,20,NiO-Mn3O4,45,350,74,NiO,Mn3O4,25.03,25.03,25.03,1,5,1.88,2350.7,0.18,2199.9,0,,,2
10.1021/acsami.1c02855,1087,225,141,NiO,Mn3O4,20,NiO-Mn3O4,46,350,50,NiO,Mn3O4,27.74,27.74,27.74,1,5,0.99,5860.4,0.37,2952.5,0,0.223,1,2
10.1021/acsami.1c02855,1088,225,141,NiO,Mn3O4,20,NiO-Mn3O4,45,350,74,NiO,Mn3O4,25.53,25.53,25.53,1,5,0.93,4122.9,0.22,1444.6,0,,,2
10.1021/acsami.1c02855,1089,225,141,NiO,Mn3O4,20,NiO-Mn3O4,46,350,89,NiO,Mn3O4,24.89,24.89,24.89,1,5,4.37,1011.5,0.26,833.1,0,0.209,1,2
10.1088/1361-6528/ac13eb,1090,225,,Ni,La2MnO6,20,La2NiMnO6,,243,268,Ni,La2MnO6,65,65,65,2,5,30.5,205,,100,0,,,0.01
10.1088/1361-6528/ac13eb,1091,225,,Ni,La2MnO6,20,La2NiMnO6,,243,268,Ni,La2MnO6,75,75,75,2,5,53.8,130,,16,1,,,0.01
10.1088/1361-6528/ac13eb,1092,225,,Ni,La2MnO6,20,La2NiMnO6,,243,268,Ni,La2MnO6,80,80,80,2,5,52.7,125,,23,1,,,0.01
10.1021/acs.jpcc.1c00562,1093,62,148,Ce,FeCr0.5O3,60,Ce-Fe0.5Cr0.5O3,100,274,,Ce,FeCr0.5O3,,,,,10,6,304.7445,0.064,100.3325,0,0.013,1,0.5
10.1021/acs.jpcc.1c00562,1094,62,148,Pr,FeCr0.5O3,50,Pr-FeCr0.5O3,100,238,,Pr,FeCr0.5O3,,,,,5,13,7609.472,5.85,210.978,0,0.333,1,0.5
10.1021/acs.jpcc.1c00562,1095,62,148,Nd,FeCr0.5O3,60,Nd-FeCr0.5O3,50,252,,Nd,FeCr0.5O3,,,,,5,15.1,192.165,0.073,1482.057,1,0.43,0,0.5
10.1021/acs.jpcc.1c00562,1096,62,148,Sm,FeCr0.5O3,60,Sm-FeCr0.5O3,100,650,,Sm,FeCr0.5O3,,,,,5,1.85,226.316,0.017,21865.316,0,0.833,1,0.5
10.1002/smll.202107426,1097,225,227,FeO,Fe3O4,60,FeO-Fe3O4,266,200,,FeO,Fe3O4,14,14,14,1,5,39,300,20,2000,0,,,5
10.1002/smll.202107426,1098,227,227,CoFeO,Fe3O4,60,CoFeO-Fe3O4,,226,,CoFeO,Fe3O4,18,18,18,1,5,14,600,6,1600,0,,,5
10.1002/smll.202107426,1099,,227,NiCoFeO,Fe3O4,60,NiCoFeO-Fe3O4,300,273,800,NiCoFeO,Fe3O4,16,16,16,1,5,15,500,8,500,0,,,5
10.1002/smll.202107426,1100,225,227,FeO,Fe3O4,60,FeO-Fe3O4,266,200,,FeO,Fe3O4,14,14,14,1,5,35,320,6,0,1,0,0,0
10.1002/smll.202107426,1101,227,227,CoFeO,Fe3O4,60,CoFeO-Fe3O4,,226,,CoFeO,Fe3O4,18,18,18,1,5,9,270,0.8,0,1,3.4,1,0
10.1002/smll.202107426,1102,,227,NiCoFeO,Fe3O4,60,NiCoFeO-Fe3O4,300,273,800,NiCoFeO,Fe3O4,16,16,16,1,5,11,440,3,0,1,1.6,1,0
10.1039/D1TC04562H,1103,216,,CoO,CoFe,60,CoO-CoFe,,290,1150,CoO,CoFe,90,90,90,1,2,11.06,119.181,0.245,18.75,0,0.043,1,0.02
10.1039/D1TC04562H,1104,216,,CoO,CoFe,60,CoO-CoFe,,290,1150,CoO,CoFe,90,90,90,1,2,11.898,46.121,0.047,27.155,0,0.047,1,5
10.1039/D1TC04562H,1105,216,,CoO,CoFe,60,CoO-CoFe,,290,1150,CoO,CoFe,90,90,90,1,2,5.2175,1493.5,0.775,19.4,1,0.019,1,5
10.1039/D2MA00629D,1106,227,216,Fe3O4,CoO,60,Fe3O4-CoO,237,293,,Fe3O4,CoO,10.8,10.8,10.8,1,10,38,17300,29.5,0,1,0.5,1,0
10.1039/D2MA00629D,1107,227,216,Fe3O4,CoO,60,Fe3O4-CoO,237,293,,Fe3O4,CoO,9.7,9.7,9.7,1,10,45,16600,26.5,2600,0,0.5,1,7
10.1039/D2MA00629D,1108,227,216,Fe3O4,CoO,60,Fe3O4-CoO,237,293,,Fe3O4,CoO,10.8,10.8,10.8,1,10,38,20000,32.46,0,1,5.9,1,0
10.1039/D2MA00629D,1109,227,216,Fe3O4,CoO,60,Fe3O4-CoO,237,293,,Fe3O4,CoO,9.7,9.7,9.7,1,10,45,20200,28.85,1800,0,4.26,1,7
10.1007/s10948-022-06270-0,1110,136,167,CrO2,Cr2O3,2,CrO2-Cr2O3,,308,392,CrO2,Cr2O3,30,40,0,6,,68.73,571,36.365,1,0,0,0,
10.1007/s10948-022-06270-0,1111,136,167,CrO3,Cr2O4,2,CrO2-Cr2O3,,308,392,CrO3,Cr2O4,30,40,0,6,,53.25,409.5,24.9,45.5,0,0,0,
10.1016/j.jmmm.2022.169887,1112,167,0,Fe2O3,0,10,Fe2O3,208,945,510,Fe2O3,0,5.92,550,0,6,10,5.3425,5500,1.4235,1200,0,0.2585,1,5
10.1016/j.jmmm.2022.169887,1113,167,0,Fe2O3,0,10,Fe2O3,208,945,510,Fe2O3,0,7.34,650,0,6,10,7.361,4184,2.11,894,0,0.47,1,5
10.1016/j.jmmm.2022.169887,1114,167,0,Fe2O3,0,10,Fe2O3,208,945,510,Fe2O3,0,9.62,750,0,6,10,7.1705,4144,2.241,685,0,0.402,0,5
10.1016/j.jmmm.2022.169887,1115,167,0,Fe2O3,0,50,Fe2O3,208,945,510,Fe2O3,0,5.92,550,0,6,50,4.988,1352,0.55,19,0,0.091,,5
10.1016/j.jmmm.2022.169887,1116,167,0,Fe2O3,0,50,Fe2O3,208,945,510,Fe2O3,0,7.34,650,0,6,50,6.977,783,0.6835,18,0,0.0185,1,5
10.1016/j.jmmm.2022.169887,1117,167,0,Fe2O3,0,50,Fe2O3,208,945,510,Fe2O3,0,9.62,750,0,6,50,6.757,1026,,41,0,0,0,5
10.1016/j.jmmm.2022.169887,1118,167,0,Fe2O3,0,100,Fe2O3,208,945,510,Fe2O3,0,5.92,550,0,6,100,4.635,986,0.55,12,0,0.01,,5
10.1016/j.jmmm.2022.169887,1119,167,0,Fe2O3,0,100,Fe2O3,208,945,510,Fe2O3,0,7.34,650,0,6,100,6.5,257,0.303,4,0,0.016,1,5
10.1016/j.jmmm.2022.169887,1120,167,0,Fe2O3,0,100,Fe2O3,208,945,510,Fe2O3,0,9.62,750,0,6,100,6.4125,407,,8,0,0,0,5
10.1007/s10854-024-12131-4,1121,87,227,MnO2,NiCo2O4,,MnO2-NiCo2O4,8,143,835,MnO2,NiCo2O4,2.89,2.89,2.89,1,,0.63,35.39,0.006,2.3,0,0.002,1,2
10.1007/s10854-024-12131-4,1122,87,227,MnO2,NiCo2O4,,MnO2-NiCo2O4,8,143,835,MnO2,NiCo2O4,4.57,4.57,4.57,1,,2.31,16.08,0.02,15.01,0,0.02,1,2
10.1007/s10854-024-12131-4,1123,87,227,MnO2,NiCo2O4,,MnO2-NiCo2O4,8,143,835,MnO2,NiCo2O4,9.04,9.04,9.04,1,,2.58,15.64,0.33,14.16,0,0.165,1,2
10.1007/s10854-024-12131-4,1124,87,227,MnO2,NiCo2O4,,MnO2-NiCo2O4,8,143,835,MnO2,NiCo2O4,18.76,18.76,18.76,1,,5.59,15.6,0.1,12.71,0,0.21,1,2
10.1016/j.cap.2011.11.011,1125,227,92,Fe3O4,Fe2O3,10,Fe3O4-Fe2O3,130,960,858,Fe3O4,Fe2O3,12,12,12,1,10,17.5,439.986,4.985,42.394,1,0.22,1,0
10.1016/j.cap.2011.11.011,1126,227,92,Fe3O4,Fe2O3,10,Fe3O4-Fe2O3,135,960,858,Fe3O4,Fe2O3,12,12,12,1,10,16.68,456,5.168,151.6,0,1.042,1,0.05
10.1016/j.cap.2011.11.011,1127,227,92,Fe3O4,Fe2O3,10,Fe3O4-Fe2O3,130,960,858,Fe3O4,Fe2O3,12,12,12,1,10,18,359.99,7.494,119.998,0,3.2,1,5
10.1016/j.cap.2011.11.011,1128,227,92,Fe3O4,Fe2O3,10,Fe3O4-Fe2O3,130,960,858,Fe3O4,Fe2O3,12,12,12,1,10,,345.75,0.001,0,1,,,0
10.1016/j.cap.2011.11.011,1129,227,92,Fe3O4,Fe2O3,10,Fe3O4-Fe2O3,135,960,858,Fe3O4,Fe2O3,12,12,12,1,10,0.0015,367.175,0.00045,279.449,0,0.00003,,0.05
10.1016/j.cap.2011.11.011,1130,227,92,Fe3O4,Fe2O3,10,Fe3O4-Fe2O3,130,960,858,Fe3O4,Fe2O3,12,12,12,1,10,0.0013,345.785,,142.541,0,,,5
10.1088/0953-8984/25/4/046002,1131,194,136,Co,MnF2,1,Co-MnF2,,67,1400,Co,MnF2,8,8,8,1,300,,46,,3,1,0,1,1
10.1088/0953-8984/25/4/046002,1132,194,136,Co,MnF2,1,Co-MnF2,,67,1400,Co,MnF2,8,8,8,1,14,,175.5,,39.1,0,0,1,1
https://core.ac.uk/download/pdf/48655547.pdf,1133,,186,GeMnTe,MnO,30,GeMnTe-MnO,20,118,200,GeMnTe,MnO,,,,,5,48.4,4222.5,41.47,543.94,0,4,1,1
https://core.ac.uk/download/pdf/48655547.pdf,1134,,186,GeMnTe,MnO,30,GeMnTe-MnO,20,118,200,GeMnTe,MnO,,,,,10,55,2564.65,34.3,284.39,0,0,0,1
https://core.ac.uk/download/pdf/48655547.pdf,1135,,186,GeMnTe,MnO,30,GeMnTe-MnO,20,118,200,GeMnTe,MnO,,,,,20,56,855.25,21,25.25,0,0,0,1
doi.org/10.1021/ic902128g,1136,194,225,Co,Ni,40,Co-Ni,11,,1140,Co,Ni,8,8,8,1,2,,500,,35,0,,1,5
doi.org/10.1021/ic902128g,1137,194,225,Co,Ni,40,Co-Ni,40,,1140,Co,Ni,8,8,8,1,2,,1100,,144,0,,1,5
doi.org/10.1021/ic902128g,1138,194,225,Co,Ni,40,Co-Ni,80,,1140,Co,Ni,8,8,8,1,2,,1100,,585,0,,1,5
10.1103/PhysRevB.74.054430,1139,92,227,Fe2O3,Fe3O4,10,Fe2O3-Fe3O4,160,960,820,Fe2O3,Fe3O4,13,13,13,1,50,86,479,39.3,105,0,9.1,0,5
10.1103/PhysRevB.74.054430,1140,92,227,Fe2O3,Fe3O4,10,Fe2O3-Fe3O4,80,953,770,Fe2O3,Fe3O4,8,8,8,1,50,55,210,38.99,50,0,6.6,0,5
10.1063/1.2072807,1141,141,230,Mn3O4,Mn,50,Mn3O4-Mn,,42,1200,Mn3O4,Mn,,,,1,5,19.2,10518,7.1,5026,0,0.3,1,5
10.1063/1.2736303,1142,194,225,Co,CoO,10,Co-CoO,50,291,,Co,CoO,7,7,7,1,5,,1401.15,,10.282,0,,1,5
10.1063/1.2736303,1143,194,225,Co,CoO,10,Co-CoO,50,291,,Co,CoO,12,12,12,1,5,,1058.6,,9.4,1,,1,5
10.1063/1.2736303,1144,194,225,Co,CoO,10,Co-CoO,50,291,,Co,CoO,8,8,8,1,5,,645.68,,161.6,0,,1,5
10.1063/1.2736303,1145,194,225,Co,CoO,10,Co-CoO,50,291,,Co,CoO,13,13,13,1,5,,423.4,,80.8,0,,1,5
10.1016/j.jallcom.2009.06.046,1146,194,206,Co,Cr2O3,,Co–Cr2O3,,307,1388,Co,Cr2O3,86,,,,10,12,824.485,3.3735,393.601,0,1.1335,1,5
10.1016/j.jallcom.2009.06.046,1147,194,206,Co,Cr2O3,,Co–Cr2O3,,307,1388,Co,Cr2O3,86,,,,10,25,734,11.185,106.34,0,1.05,1,5
10.1016/j.jallcom.2009.06.046,1148,194,206,Co,Cr2O3,,Co–Cr2O3,,307,1388,Co,Cr2O3,86,,,,10,70,305.85,14.728,44.72,0,1.398,1,5
10.1016/j.jallcom.2009.06.046,1149,194,206,Co,Cr2O3,,Co–Cr2O3,,307,1388,Co,Cr2O3,86,,,,10,12,553.217,1.92,287.26,0,0.61,1,0
10.1016/j.jallcom.2009.06.046,1150,194,206,Co,Cr2O3,,Co–Cr2O3,,307,1388,Co,Cr2O3,86,,,,10,25,635.65,9.122,71.72,0,0.203,1,0
10.1016/j.jallcom.2009.06.046,1151,194,206,Co,Cr2O3,,Co–Cr2O3,,307,1388,Co,Cr2O3,86,,,,10,70,239.36,10.86,15.892,0,0.11,1,0
10.1016/j.jmmm.2007.01.007,1152,227,0,CoFe2O4,0,15,CoFe2O4,320,790,789,CoFe2O4,0,21,,,,77,55.5,11435,50.5,755,0,12.615,1,1.2
10.1063/1.2739217,1153,194,167,Co,Cr2O3,20,Co-Cr2O3,350,310,1388,Co,Cr2O3,70.3,70.3,70.3,1,50,112.25,249,32.5,110,0,9.5,1,
10.1063/1.2739217,1154,194,167,Co,Cr2O3,20,Co-Cr2O3,350,310,1388,Co,Cr2O3,6.3,6.3,6.3,1,50,40.5,355,18.4,85,0,3.766,1,
10.1063/1.2739217,1155,194,167,Co,Cr2O3,20,Co-Cr2O3,350,310,1388,Co,Cr2O3,50.7,50.7,50.7,1,50,93.385,1037,43.74,427,0,13.183,1,
10.1063/1.2739217,1156,194,167,Co,Cr2O3,20,Co-Cr2O3,350,310,1388,Co,Cr2O3,7.7,7.7,7.7,1,50,24.76,315,11.212,150,0,5.412,1,
10.1063/1.2739217,1157,194,167,Co,Cr2O3,20,Co-Cr2O3,350,310,1388,Co,Cr2O3,45.25,45.25,45.25,1,50,67.385,349,35.475,194,0,7.475,1,
10.1021/jp8085446,1158,212,225,Fe2O3,CoO ,50,Fe2O3-CoO ,,950,291,Fe2O3,CoO ,18,18,18,,10,10.72,8296.1,3.845,3721.63,0,1.25,1,5
10.1021/jp8085446,1159,225,212,CoO,Fe2O3,50,CoO-Fe2O3,,950,291,CoO,Fe2O3,18,18,18,,10,8.691,8655.17,2.1245,8655.17,0,0.901,1,5
10.1063/1.1447182,1160,221,0,CuO,0,50,CuO,,213,,CuO,0,6.6,6.6,6.6,1,10,0.00008735,838.947,0.00002668,850,0,0.000004145,1,1
10.1016/j.ssc.2007.10.019     ,1161,225,194,NiO,Co,65,NiO-Co,220,523,1388,NiO,Co,12.7,12.7,12.7,1,5,1.65,9036.35,0.343,4737.972,0,0.184,1,2
10.1103/PhysRevB.70.052401,1162,227,221,Fe3O4,Fe2O3,50,Fe3O4-Fe2O3,140,950,858,Fe3O4,Fe2O3,6,,,,5,66.3,1396.42,23.7,320.09,0,0,0,4
10.1103/PhysRevB.70.052401,1163,227,221,Fe3O4,Fe2O3,50,Fe3O4-Fe2O3,140,950,858,Fe3O4,Fe2O3,6,,,,5,66.3,1657.3,22,494.33,0,0,0,0.4
10.1103/PhysRevLett.95.077204,1164,225,225,CoO,Au,30,CoO-Au,200,293,,CoO,Au,9,9,9,1,10,60.5,3388,26,98,1,0,0,0
10.1103/PhysRevLett.95.077204,1165,225,225,CoO,Au,30,CoO-Au,200,293,,CoO,Au,9,9,9,1,75,61.7,2565.5,34,65.5,1,0,0,0
10.1103/PhysRevLett.95.077204,1166,225,225,CoO,Au,30,CoO-Au,200,293,,CoO,Au,9,9,9,1,10,61,4233,30.5,3828,1,25,1,3
10.1103/PhysRevLett.95.077204,1167,225,225,CoO,Au,30,CoO-Au,200,293,,CoO,Au,9,9,9,1,10,58,5163.5,24,5163.5,1,24,1,3
10.1063/1.3259425,1168,194,167,Cr2O3,Co,10,Cr2O3-Co,14,305,,Cr2O3,Co,50,50,50,3,85,113,280.65,23.1,51.65,0,3.45,1,5
10.1063/1.3259425,1169,194,167,Cr2O3,Co,10,Cr2O3-Co,14,305,,Cr2O3,Co,50,50,50,3,100,,269.355,22.9,58.865,0,2.905,1,5
10.1063/1.3259425,1170,194,167,Cr2O3,Co,10,Cr2O3-Co,14,305,,Cr2O3,Co,50,50,50,3,120,,262.097,23.44,58.097,0,2.56,1,5
10.1063/1.3259425,1171,194,167,Cr2O3,Co,10,Cr2O3-Co,14,305,,Cr2O3,Co,50,50,50,3,160,,255.65,22.49,49.197,0,3.53,1,5
10.1063/1.3259425,1172,194,167,Cr2O3,Co,10,Cr2O3-Co,14,305,,Cr2O3,Co,50,50,50,3,180,,252.4,22.665,46.4,0,2.845,1,5
10.1063/1.3259425,1173,194,167,Cr2O3,Co,10,Cr2O3-Co,14,305,,Cr2O3,Co,50,50,50,3,200,,245.1625,21.8,42.7365,0,3.36,1,5
10.1063/1.3259425,1174,194,167,Cr2O3,Co,10,Cr2O3-Co,14,305,,Cr2O3,Co,50,50,50,3,250,,229.436,21.37,33.467,0,2.41,1,5
10.1063/1.3259425,1175,194,167,Cr2O3,Co,10,Cr2O3-Co,14,305,,Cr2O3,Co,50,50,50,3,300,,216.5,20.85,10.853,0,1.55,1,5
10.1063/1.3259425,1176,194,167,Cr2O3,Co,10,Cr2O3-Co,14,305,,Cr2O3,Co,50,50,50,3,320,,213.3,21.3735,0.4,0,0.3445,1,5
10.1021/ja0714282,1177,225,141,MnO,Mn3O4,50,MnO-Mn3O4,41.1,122,43,MnO,Mn3O4,4.8,4.8,4.8,1,10,8.6,4094.074,1.65,1073.211,0,0.683,1,7
10.1021/ja0714282,1178,225,141,MnO,Mn3O4,30,MnO-Mn3O4,41.1,122,43,MnO,Mn3O4,8.1,8.1,8.1,1,10,8.6,3422.964,1.47,2073.995,0,0.803,1,7
10.1021/ja0714282,1179,225,141,MnO,Mn3O4,20,MnO-Mn3O4,41.1,122,43,MnO,Mn3O4,17.7,17.7,17.7,3,10,8.6,2786,1.15,2786,0,1.15,1,7
10.1021/ja0714282,1180,225,141,MnO,Mn3O4,10,MnO-Mn3O4,41.1,122,43,MnO,Mn3O4,23.7,23.7,23.7,3,10,8.6,1409.7875,0.65,4028.0825,0,1.619,1,7
10.1021/ja0714282,1181,225,141,MnO,Mn3O4,70,MnO-Mn3O4,41.1,122,43,MnO,Mn3O4,23.7,23.7,23.7,3,10,15.13,7101.82,6.1,1014.42,0,1,1,5
10.1021/ja0714282,1182,225,141,MnO,Mn3O4,70,MnO-Mn3O4,41.1,122,43,MnO,Mn3O4,23.7,23.7,23.7,3,10,9.999,3007.25,3,108.7,0,0.4,1,5
10.1021/ja0714282,1183,225,141,MnO,Mn3O4,70,MnO-Mn3O4,41.1,122,43,MnO,Mn3O4,23.7,23.7,23.7,3,10,7.5,6739.5,2.5,1594.06,0,0.766,1,5
10.1021/ja0714282,1184,225,141,MnO,Mn3O4,70,MnO-Mn3O4,41.1,122,43,MnO,Mn3O4,23.7,23.7,23.7,3,10,5.723,5434.7825,1.633,1521.7395,0,0.633,1,5
10.1063/1.3021370,1185,62,62,Sm0.5Ca0.5,MnO3,50,Sm0.5Ca0.5MnO3,,170,,Sm0.5Ca0.5MnO3,0,40,40,40,,4,20.26,1668.845,2.389,707.745,0,1.019,1,1
10.1063/1.3021370,1186,62,62,Sm0.5Ca0.5,MnO3,50,Sm0.5Ca0.5MnO3,,170,,Sm0.5Ca0.5MnO3,0,70,70,70,,4,18.882,1538.93,1.665,759.29,0,0.887,1,1
10.1063/1.3021370,1187,62,62,Sm0.5Ca0.5,MnO3,50,Sm0.5Ca0.5MnO3,,170,,Sm0.5Ca0.5MnO3,0,120,120,120,,4,14.08,1272.717,0.7225,870.117,0,0.5335,1,1
10.1063/1.3021370,1188,62,62,Sm0.5Ca0.5,MnO3,50,Sm0.5Ca0.5MnO3,,170,,Sm0.5Ca0.5MnO3,0,70,70,70,,4,19,1520,2.4,780,0,0.98,1,1
10.1103/PhysRevB.77.054410,1189,62,,CaMnO3,SG,90,CaMnO3,35,122,,CaMnO3,SG,50,3,0,6,150,0.415,,,,0,0,0,1
10.1103/PhysRevB.77.054410,1190,62,,CaMnO3,SG,90,CaMnO3,35,122,,CaMnO3,SG,50,3,0,6,120,0.785,708.85,0.2205,1,0,0.0035,1,1
10.1103/PhysRevB.77.054410,1191,62,,CaMnO3,SG,90,CaMnO3,35,122,,CaMnO3,SG,50,3,0,6,90,1.135,6371.85,0.633,660.75,0,0.173,1,1
10.1103/PhysRevB.77.054410,1192,62,,CaMnO3,SG,90,CaMnO3,35,122,,CaMnO3,SG,50,3,0,6,90,1.15,6462.265,0.645,896.265,0,0.165,1,1
10.1103/PhysRevB.77.054410,1193,62,,CaMnO3,SG,90,CaMnO3,35,122,,CaMnO3,SG,50,3,0,6,50,0.965,5896.225,0.505,4666.225,0,0.395,1,1
10.1103/PhysRevB.77.054410,1194,62,,CaMnO3,SG,90,CaMnO3,35,122,,CaMnO3,SG,50,3,0,6,10,0.5,7358.49,0.23,,0,0.6,1,1
10.1103/PhysRevB.77.054410,1195,62,,CaMnO3,SG,90,CaMnO3,35,122,,CaMnO3,SG,50,3,0,6,5,3.755,15645.5,0.786,484.5,0,0.01,1,9
10.1103/PhysRevB.77.054410,1196,62,,CaMnO3,SG,90,CaMnO3,35,122,,CaMnO3,SG,50,3,0,6,50,3.8165,11452.75,0.98,162.43,0,0.02,1,9
10.1103/PhysRevB.77.054410,1197,62,,CaMnO3,SG,90,CaMnO3,35,122,,CaMnO3,SG,50,3,0,6,100,3.337,5698.925,0.735,213.995,0,0,0,9
10.1063/1.3039071,1198,225,227,NiO,NiFe2O4,30,NiO-NiFe2O4,300,796,858,NiO,NiFe2O4,8,8,8,3,10,2.95,1250,1.155,2200,0,0.853,1,3
10.1088/0022-3727/42/4/045003,1199,62,,Nd0.5Ca0.5MnO3,SG,10,Nd0.5Ca0.5MnO3,,250,260,Nd0.5Ca0.5MnO3,0,45,45,45,1,10,8,500,0.7,820,0,0.9,1,5
10.1103/PhysRevB.80.064427,1200,194,12,Co,CoO,50,Co-CoO,220,293,1388,Co,CoO,15,15,15,1,200,,900,,318,0,0,0,0.2
10.1016/j.jallcom.2009.06.183,1201,62,194,CrN,Co,40,CrN-Co,,273,,CrN,Co,28,28,28,3,5,5.1,710.65,1.35,710.65,0,0.87,1,1
10.1088/0957-4484/15/4/017,1202,229,167,Fe,Cr2O3,50,Fe-Cr2O3,307,310,,Fe,Cr2O3,7,7,7,1,10,,185,,9,,0,0,0.5
10.1016/j.jmmm.2005.03.014,1203,229,62,Fe,MnO2,10,Fe-MnO2,290,100,1043,Fe,MnO2,9,9,9,,4.2,95,820,41.1,360,0,0.1,1,5
10.1016/j.jmmm.2005.03.014,1204,229,62,Fe,MnO2,10,Fe-MnO2,290,100,1043,Fe,MnO2,9,9,9,,4.2,14.2,770,5.2,470,0,0.6,1,5
10.1016/j.jmmm.2005.03.014,1205,229,62,Fe,MnO2,10,Fe-MnO2,290,100,1043,Fe,MnO2,9,9,9,,4.2,6.6,1960,1.3,960,0,2.3,1,5
10.1088/0964-1726/18/1/015018,1206,225,227,NiO,CuFe2O4,10,NiO-CuFe2O4,70,796,723,NiO,CuFe2O4,20,20,20,3,10,1.8,400,0.9,110,0,0.2,1,
10.1088/0022-3727/42/3/035008,1207,225,227,NiO,NiFe2O4,40,NiO-NiFe2O4,350,796,850,NiO,NiFe2O4,40,40,40,1,10,6,2273.275,2.7,493.641,0,0.44,1,4
10.1088/0022-3727/42/3/035008,1208,225,227,NiO,NiFe2O4,40,NiO-NiFe2O4,350,796,850,NiO,NiFe2O4,31,31,31,1,10,6.1,3351,3.25,1595.4,0,1.47,1,4
10.1109/TMAG.2002.803219,1209,227,225,(NiCo)O,NiCo,10,NiCoO-NiCo,,323,,NiCoO,NiCo,40,40,40,1,77,,228.5,,15,0,,,
10.1109/TMAG.2002.803219,1210,227,225,(NiCo)O,NiCo,10,NiCoO-NiCo,,323,,NiCoO,NiCo,40,40,40,1,77,,258.8,,93.2,0,,,
10.1109/TMAG.2002.803219,1211,227,225,(NiCo)O,NiCo,10,NiCoO-NiCo,,323,,NiCoO,NiCo,40,40,40,1,77,,369.5,,4.5,0,,,
10.1109/TMAG.2002.803219,1212,227,225,(NiCo)O,NiCo,10,NiCoO-NiCo,,323,,NiCoO,NiCo,40,40,40,1,77,,346,,32.7,0,,,
10.1109/TMAG.2002.803219,1213,227,225,(NiCo)O,NiCo,10,NiCoO-NiCo,,323,,NiCoO,NiCo,40,40,40,1,77,,257.5,,11.2,0,,,
10.1109/TMAG.2002.803219,1214,227,225,(NiCo)O,NiCo,10,NiCoO-NiCo,,323,,NiCoO,NiCo,100,100,100,1,77,,133,,11.5,1,,,
10.1109/TMAG.2002.803219,1215,227,225,(NiCo)O,NiCo,10,NiCoO-NiCo,,323,,NiCoO,NiCo,100,100,100,1,77,,140,,146.5,0,,,
10.1109/TMAG.2002.803219,1216,227,225,(NiCo)O,NiCo,10,NiCoO-NiCo,,323,,NiCoO,NiCo,100,100,100,1,77,,258,,244.5,0,,,
10.1109/TMAG.2002.803219,1217,227,225,(NiCo)O,NiCo,10,NiCoO-NiCo,,323,,NiCoO,NiCo,100,100,100,1,77,,217,,99,0,,,
10.1088/0953-8984/19/22/225007,1218,229,225,Fe,FeO,50,Fe-FeO,323,471,1043,Fe,FeO,6,6,6,1,5,,180,,,,,,0.4
10.1088/0953-8984/19/22/225007,1219,229,225,Fe,FeO,50,Fe-FeO,323,471,1043,Fe,FeO,6,6,6,1,5,,,13.2,0,1,,,0
10.1088/0953-8984/19/22/225007,1220,229,225,Fe,FeO,50,Fe-FeO,323,471,1043,Fe,FeO,5.6,5.6,5.6,1,5,,,19.28,397,0,,,0.1
10.1088/0953-8984/19/22/225007,1221,229,225,Fe,FeO,50,Fe-FeO,323,471,1043,Fe,FeO,9.6,9.6,9.6,1,5,,,29.8,504,0,,,0.4
10.1088/0953-8984/19/22/225007,1222,229,225,Fe,FeO,50,Fe-FeO,353,471,1043,Fe,FeO,15.2,15.2,15.2,1,5,,,31.8,304,0,,,4