link,id,space_group_core,space_group_shell,core,shell,h_range_max_koe,chemical formula,Tb,TN,Tc,c1,c2,x,y,z,shape,temperature_k,sat_em_g,coer_oe,mr (emu/g),exc_bias_oe,exc_dir,ver_shift_emu_g,ver_s_dir,fc_field_t
10.1016/j.jallcom.2020.155050,761,,0,Ni0.99Zn0.01O,0,,Ni0.99Zn0.01O,,796,,Ni0.99Zn0.01O,0,29,29,29,1,300,,420.07,0.00615,46.4866,0,,,0.01
10.1016/j.jallcom.2020.155050,762,,0,Ni0.97Zn0.03O,0,,Ni0.97Zn0.03O,,796,,Ni0.97Zn0.03O,0,27.59,27.59,27.59,1,300,,533,0.00642,44.365,0,,,0.01
10.1016/j.jallcom.2020.155050,763,,0,Ni0.95Zn0.05O,0,,Ni0.95Zn0.05O,,796,,Ni0.95Zn0.05O,0,28.44,28.44,28.44,1,300,,159.266,0.00237,15.541,0,,,0.01
10.1016/j.jallcom.2020.155050,764,225,0,NiO,0,,NiO,5,796,85,NiO,0,28.92,28.92,28.92,1,3,,1044.68,0.01538,49.168,0,,,0.01
10.1016/j.jallcom.2020.155050,765,,0,Ni0.99Zn0.01O,0,,Ni0.99Zn0.01O,,796,,Ni0.99Zn0.01O,0,29,29,29,1,3,,645.11,0.01022,55.388,0,,,0.01
10.1016/j.jallcom.2020.155050,766,,0,Ni0.97Zn0.03O,0,,Ni0.97Zn0.03O,,796,,Ni0.97Zn0.03O,0,27.59,27.59,27.59,1,3,,495.24,0.00872,74.345,0,,,0.01
10.1016/j.jallcom.2020.155050,767,,0,Ni0.95Zn0.05O,0,,Ni0.95Zn0.05O,,796,,Ni0.95Zn0.05O,0,28.44,28.44,28.44,1,3,,256.8,0.00514,30.212,0,,,0.01
10.1021/cm501951u,768,216,227,CoO,Fe3O4,70,CoO-Fe3O4,8,291,850,CoO,Fe3O4,40,40,40,3,10,,7824,,0,1,0,1,0
10.1021/cm501951u,769,216,227,CoO,Fe3O4,70,CoO-Fe3O4,8,291,850,CoO,Fe3O4,40,40,40,3,50,,7956,,0,1,0,1,0
10.1021/cm501951u,770,216,227,CoO,Fe3O4,70,CoO-Fe3O4,8,291,850,CoO,Fe3O4,40,40,40,3,150,,4099,,0,1,0,1,0
10.1021/cm501951u,771,216,227,CoO,Fe3O4,70,CoO-Fe3O4,8,291,850,CoO,Fe3O4,40,40,40,3,250,,1646,,0,1,0,1,0
10.1021/cm501951u,772,216,227,CoO,Fe3O4,70,CoO-Fe3O4,8,291,850,CoO,Fe3O4,40,40,40,3,10,,8040,,101,0,,,5
10.1021/cm501951u,773,216,227,CoO,Fe3O4,70,CoO-Fe3O4,8,291,850,CoO,Fe3O4,40,40,40,3,50,,8105,,74,0,,,5
10.1021/cm501951u,774,216,227,CoO,Fe3O4,70,CoO-Fe3O4,8,291,850,CoO,Fe3O4,40,40,40,3,150,,4131,,55,0,,,5
10.1021/cm501951u,775,216,227,CoO,Fe3O4,70,CoO-Fe3O4,8,291,850,CoO,Fe3O4,40,40,40,3,250,,1662,,30,0,,,5
10.1021/cm501951u,776,216,227,CoO,Fe3O4,30,CoO-Fe3O4,8,291,850,CoO,Fe3O4,40,40,40,3,10,,8487,,0,1,,,0
10.1021/cm501951u,777,216,227,CoO,Fe3O4,30,CoO-Fe3O4,8,291,850,CoO,Fe3O4,40,40,40,3,50,,8227,,0,1,,,0
10.1021/cm501951u,778,216,227,CoO,Fe3O4,30,CoO-Fe3O4,8,291,850,CoO,Fe3O4,40,40,40,3,150,,4292,,0,1,,,0
10.1021/cm501951u,779,216,227,CoO,Fe3O4,30,CoO-Fe3O4,8,291,850,CoO,Fe3O4,40,40,40,3,250,,1729,,0,1,,,0
10.1021/cm501951u,780,216,227,CoO,Fe3O4,30,CoO-Fe3O4,8,291,850,CoO,Fe3O4,40,40,40,3,300,,1046,,0,1,,,0
10.1021/cm501951u,781,216,227,CoO,Fe3O4,30,CoO-Fe3O4,8,291,850,CoO,Fe3O4,40,40,40,3,10,,8624,,178,0,,,5
10.1021/cm501951u,782,216,227,CoO,Fe3O4,30,CoO-Fe3O4,8,291,850,CoO,Fe3O4,40,40,40,3,50,,8200,,109,0,,,5
10.1021/cm501951u,783,216,227,CoO,Fe3O4,30,CoO-Fe3O4,8,291,850,CoO,Fe3O4,40,40,40,3,150,,4302,,45,0,,,5
10.1021/cm501951u,784,216,227,CoO,Fe3O4,30,CoO-Fe3O4,8,291,850,CoO,Fe3O4,40,40,40,3,250,,1737,,36,0,,,5
10.1021/cm501951u,785,216,227,CoO,Fe3O4,70,CoO-Fe3O4,8,291,850,CoO,Fe3O4,98,98,98,3,10,,3490,,0,1,,,0
10.1021/cm501951u,786,216,227,CoO,Fe3O4,70,CoO-Fe3O4,8,291,850,CoO,Fe3O4,98,98,98,3,50,,2624,,0,1,,,0
10.1021/cm501951u,787,216,227,CoO,Fe3O4,70,CoO-Fe3O4,8,291,850,CoO,Fe3O4,98,98,98,3,150,,1316,,0,1,,,0
10.1021/cm501951u,788,216,227,CoO,Fe3O4,70,CoO-Fe3O4,8,291,850,CoO,Fe3O4,98,98,98,3,250,,498,,0,1,,,0
10.1021/cm501951u,789,216,227,CoO,Fe3O4,70,CoO-Fe3O4,8,291,850,CoO,Fe3O4,98,98,98,3,325,,266,,0,1,,,0
10.1021/cm501951u,790,216,227,CoO,Fe3O4,70,CoO-Fe3O4,8,291,850,CoO,Fe3O4,98,98,98,3,10,,3197,,253,0,,,5
10.1021/cm501951u,791,216,227,CoO,Fe3O4,70,CoO-Fe3O4,8,291,850,CoO,Fe3O4,98,98,98,3,50,,2656,,160,0,,,5
10.1021/cm501951u,792,216,227,CoO,Fe3O4,70,CoO-Fe3O4,8,291,850,CoO,Fe3O4,98,98,98,3,150,,1346,,58,0,,,5
10.1021/cm501951u,793,216,227,CoO,Fe3O4,70,CoO-Fe3O4,8,291,850,CoO,Fe3O4,98,98,98,3,250,,503,,11,0,,,5
10.1021/cm501951u,794,216,227,CoO,Fe3O4,70,CoO-Fe3O4,8,291,850,CoO,Fe3O4,98,98,98,3,325,,275,,2,0,,,5
10.1021/cm501951u,795,216,227,CoO,Fe3O4,70,CoO-Fe3O4,8,291,850,CoO,Fe3O4,98,98,98,3,10,,3016,,238,0,,,2
10.1021/cm501951u,796,216,227,CoO,Fe3O4,70,CoO-Fe3O4,8,291,850,CoO,Fe3O4,98,98,98,3,50,,2528,,147,0,,,2
10.1021/cm501951u,797,216,227,CoO,Fe3O4,30,CoO-Fe3O4,8,291,850,CoO,Fe3O4,98,98,98,3,10,,4520,,0,1,,,0
10.1021/cm501951u,798,216,227,CoO,Fe3O4,30,CoO-Fe3O4,8,291,850,CoO,Fe3O4,98,98,98,3,50,,3655,,0,1,,,0
10.1021/cm501951u,799,216,227,CoO,Fe3O4,30,CoO-Fe3O4,8,291,850,CoO,Fe3O4,98,98,98,3,150,,1947,,0,1,,,0
10.1021/cm501951u,800,216,227,CoO,Fe3O4,30,CoO-Fe3O4,8,291,850,CoO,Fe3O4,98,98,98,3,250,,741,,0,1,,,0
10.1021/cm501951u,801,216,227,CoO,Fe3O4,30,CoO-Fe3O4,8,291,850,CoO,Fe3O4,98,98,98,3,325,,341,,0,1,,,0
10.1021/cm501951u,802,216,227,CoO,Fe3O4,30,CoO-Fe3O4,8,291,850,CoO,Fe3O4,98,98,98,3,10,,4652,,943,0,,,5
10.1021/cm501951u,803,216,227,CoO,Fe3O4,30,CoO-Fe3O4,8,291,850,CoO,Fe3O4,98,98,98,3,50,,3697,,376,0,,,5
10.1021/cm501951u,804,216,227,CoO,Fe3O4,30,CoO-Fe3O4,8,291,850,CoO,Fe3O4,98,98,98,3,150,,1805,,81,0,,,5
10.1021/cm501951u,805,216,227,CoO,Fe3O4,30,CoO-Fe3O4,8,291,850,CoO,Fe3O4,98,98,98,3,250,,687,,23,0,,,5
10.1021/cm501951u,806,216,227,CoO,Fe3O4,30,CoO-Fe3O4,8,291,850,CoO,Fe3O4,98,98,98,3,325,,353,,0,0,,,5
10.1103/PhysRevB.94.054432,807,225,227,CoO,Ni0.5Co0.5Fe2O4,50,CoO-Ni0.5Co0.5Fe2O4,49,291,813,CoO,Ni0.5Co0.5Fe2O4,6.3,6.3,6.3,1,10,28.685,5500,6.6,800,0,0.6,1,1
10.1103/PhysRevB.94.054432,808,225,227,CoO,Ni0.5Co0.5Fe2O4,70,CoO-Ni0.5Co0.5Fe2O4,72,291,813,CoO,Ni0.5Co0.5Fe2O4,6.4,6.4,6.4,1,10,23.42,14600,15,2300,0,2.63,1,1
10.1016/j.jmmm.2013.09.040,809,227,227,CoFe2O4,CoFe2,12,CoFe2O4-CoFe2,200,,922,CoFe2O4,CoFe2,70.2,70.2,70.2,1,300,82.4,900,27.4,,,4.8,1,0
10.1016/j.jmmm.2013.09.040,810,227,227,CoFe2O4,CoFe2,12,CoFe2O4-CoFe2,200,,922,CoFe2O4,CoFe2,68,68,68,1,300,80,760,26.1,,,13,1,0
10.1016/j.jmmm.2013.09.040,811,227,227,CoFe2O4,CoFe2,12,CoFe2O4-CoFe2,200,,922,CoFe2O4,CoFe2,64.9,64.9,64.9,1,300,94.6,750,29.6,,,9.1,1,0
10.1016/j.jmmm.2013.09.040,812,227,227,CoFe2O4,CoFe2,12,CoFe2O4-CoFe2,195,,922,CoFe2O4,CoFe2,48.6,48.6,48.6,1,10,111.4,650,29,,,2.9,1,1.2
10.1016/j.jmmm.2013.09.040,813,227,227,CoFe2O4,CoFe2,12,CoFe2O4-CoFe2,195,,922,CoFe2O4,CoFe2,37.8,37.8,37.8,1,10,141.3,540,30,,,53.3,1,1.2
10.1021/acs.chemmater.6b04768,814,194,0,Co,0,125,Co,190,234,1400,Co,0,24,24,24,1,300,18.9,13000,,0,1,,,0
10.1021/acs.chemmater.6b04768,815,221,227,FeCo,CoFe2O4,125,FeCo−CoFe2O4,220,,950,FeCo,CoFe2O4,23,23,23,1,300,37.8,15500,,0,1,,,0
10.1021/acs.chemmater.6b04768,816,167,227,Fe2Co,CoFe2O4,125,Fe2Co−CoFe2O4,230,,950,Fe2Co,CoFe2O4,22,22,22,1,300,37.8,15200,,0,1,,,0
10.1021/acs.chemmater.6b04768,817,194,0,Co,0,125,Co,190,234,1400,Co,0,24,24,24,1,10,19,19.2,4.6465,8700,0,1.7675,1,3
10.1021/acs.chemmater.6b04768,818,221,227,FeCo,CoFe2O4,125,FeCo−CoFe2O4,220,,950,FeCo,CoFe2O4,23,23,23,1,10,38,17.4,11.607,3400,0,2.321,1,3
10.1021/acs.chemmater.6b04768,819,167,227,Fe2Co,CoFe2O4,125,Fe2Co−CoFe2O4,230,,950,Fe2Co,CoFe2O4,22,22,22,1,10,39,17,15,3200,0,2.5,1,3
10.1039/c7tc00975e,820,161,227,BiFeO3,CoFe2O4,70,BiFeO3-CoFe2O4,,643,830,BiFeO3,CoFe2O4,16.6,15.73,0,6,10,31.563,17500,24.911,462,0,1,1,
10.1039/c7tc00975e,821,161,227,BiFeO3,CoFe2O4,70,BiFeO3-CoFe2O4,,647,830,BiFeO3,CoFe2O4,16.6,15.73,0,6,10,31.5,18797,24.6,646,0,0,0,0
10.1063/1.4865904,822,229,212,Fe,Fe2O3,50,Fe-Fe2O3,400,948,1043,Fe,Fe2O3,10,10,10,1,5,14.93,2465,5.088,2113,0,5,1,0.01
10.1063/1.4865904,823,229,212,Fe,Fe2O3,50,Fe-Fe2O3,400,948,1043,Fe,Fe2O3,10,10,10,1,10,,2893.865,,2893.865,0,,1,0.01
10.1063/1.4865904,824,229,212,Fe,Fe2O3,50,Fe-Fe2O3,400,948,1043,Fe,Fe2O3,10,10,10,1,15,,2517.667,,1003.173,0,,1,0.01
10.1063/1.4865904,825,229,212,Fe,Fe2O3,50,Fe-Fe2O3,400,948,1043,Fe,Fe2O3,10,10,10,1,30,,1408.45,,106,1,,1,0.01
10.1039/C5RA24673C,826,225,225,NiO,NiO,20,NiO-NiO,5,520,720,NiO,NiO,31,31,31,1,2,1.19,6.5,0.0056,15.5,0,,,0.01
10.1039/C5RA24673C,827,225,225,NiO,NiO,20,NiO-NiO,5,520,720,NiO,NiO,31,31,31,1,25,1.16,5,0.0048,12,0,,,0.01
10.1039/C5RA24673C,828,225,225,NiO,NiO,20,NiO-NiO,5,520,720,NiO,NiO,31,31,31,1,50,1.09,14,0.0135,11,0,,,0.01
10.1039/C5RA24673C,829,225,225,NiO,NiO,20,NiO-NiO,5,520,720,NiO,NiO,31,31,31,1,100,3.32,35,0.0104,11,0,,,0.01
10.1039/C5RA24673C,830,225,225,NiO,NiO,20,NiO-NiO,5,520,720,NiO,NiO,31,31,31,1,200,3.64,36,0.0075,7,0,,,0.01
10.1039/C5RA24673C,831,225,225,NiO,NiO,20,NiO-NiO,5,520,720,NiO,NiO,31,31,31,1,300,,12,0.0059,2,1,,,0.01
10.1039/C5RA24673C,832,225,225,NiO,NiO,20,NiO-NiO,5,520,720,NiO,NiO,54,54,54,1,2,0.31,8.5,0.0034,7.5,1,,,0.01
10.1039/C5RA24673C,833,225,225,NiO,NiO,20,NiO-NiO,5,520,720,NiO,NiO,54,54,54,1,25,0.13,21,0.0069,3,1,,,0.01
10.1039/C5RA24673C,834,225,225,NiO,NiO,20,NiO-NiO,5,520,720,NiO,NiO,54,54,54,1,50,0.35,17,0.0076,7,1,,,0.01
10.1039/C5RA24673C,835,225,225,NiO,NiO,20,NiO-NiO,5,520,720,NiO,NiO,54,54,54,1,100,0.14,21,0.0043,5,1,,,0.01
10.1039/C5RA24673C,836,225,225,NiO,NiO,20,NiO-NiO,5,520,720,NiO,NiO,54,54,54,1,200,0.25,18,0.0078,5,0,,,0.01
10.1039/C5RA24673C,837,225,225,NiO,NiO,20,NiO-NiO,5,520,720,NiO,NiO,54,54,54,1,300,0.097,22.5,0.0085,4.5,0,,,0.01
10.1007/s11664-017-5337-8,838,92,227,Fe2O3,Fe3O4,50,Fe2O3-Fe3O4,126,950,770,Fe2O3,Fe3O4,5.8,5.8,5.8,3,300,64,2.3,15,0,1,0.5,1,0
10.1007/s11664-017-5337-8,839,92,227,Fe2O3,Fe3O4,50,Fe2O3-Fe3O4,78.5,950,820,Fe2O3,Fe3O4,7.6,7.6,7.6,3,300,67,7,22.3925,0,1,0.5125,1,0
10.1007/s11664-017-5337-8,840,92,227,Fe2O3,Fe3O4,50,Fe2O3-Fe3O4,150,950,900,Fe2O3,Fe3O4,10.8,10.8,10.8,3,300,70,13.7,18.119,0,1,0,0,0
10.1007/s11664-017-5337-8,841,92,227,Fe2O3,Fe3O4,50,Fe2O3-Fe3O4,112,950,900,Fe2O3,Fe3O4,12.9,12.9,12.9,3,300,73,23,21.11,0,1,0,0,0
10.1007/s11664-017-5337-8,842,92,227,Fe2O3,Fe3O4,50,Fe2O3-Fe3O4,180,950,900,Fe2O3,Fe3O4,19,19,19,3,300,80,26.8,23.418,0,1,0.168,1,0
10.1007/s11664-017-5337-8,843,92,227,Fe2O3,Fe3O4,50,Fe2O3-Fe3O4,194,950,540,Fe2O3,Fe3O4,5.8,5.8,5.8,3,5,75,221.5,0.394,7.2,0,0.155,1,5
10.1007/s11664-017-5337-8,844,92,227,Fe2O3,Fe3O4,50,Fe2O3-Fe3O4,180,950,770,Fe2O3,Fe3O4,7.6,7.6,7.6,3,5,76,294.7,0.9395,20.4,0,0.1205,1,5
10.1007/s11664-017-5337-8,845,92,227,Fe2O3,Fe3O4,50,Fe2O3-Fe3O4,180,950,900,Fe2O3,Fe3O4,10.8,10.8,10.8,3,5,80,405.7,1.546,51.8,0,0.091,1,5
10.1007/s11664-017-5337-8,846,92,227,Fe2O3,Fe3O4,50,Fe2O3-Fe3O4,180,950,900,Fe2O3,Fe3O4,12.9,12.9,12.9,3,5,84,406.9,3.485,19.7,0,0.364,1,5
10.1007/s11664-017-5337-8,847,92,227,Fe2O3,Fe3O4,50,Fe2O3-Fe3O4,180,950,900,Fe2O3,Fe3O4,19,19,19,3,5,89,415.6,3.197,20.4,0,0.105,1,5
10.1021/acs.jpcc.7b01469,848,229,227,Fe,Fe3O4,50,Fe-Fe3O4,,,860,Fe,Fe3O4,10,10,10,1,5,,1160,50.446,740,0,3.788,0,0
10.1021/acs.jpcc.7b01469,849,229,227,Fe,Fe3O4,50,Fe-Fe3O4,,,860,Fe,Fe3O4,10,10,10,1,5,,1125,53,35,1,1.234,0,0
10.1021/acs.jpcc.7b01469,850,229,227,Fe,Fe3O4,50,Fe-Fe3O4,,,860,Fe,Fe3O4,10,10,10,1,5,108,1165,56.809,75,0,2.575,1,1.8
10.1021/acs.jpcc.7b01469,851,229,227,Fe,Fe3O4,50,Fe-Fe3O4,,,860,Fe,Fe3O4,35,35,35,1,5,,1960,32.776,200,0,3.888,1.8,0
10.1021/acs.jpcc.7b01469,852,229,227,Fe,Fe3O4,50,Fe-Fe3O4,,,860,Fe,Fe3O4,35,35,35,1,5,,1890,36.48,130,0,1.48,1.8,0
10.1021/acs.jpcc.7b01469,853,229,227,Fe,Fe3O4,50,Fe-Fe3O4,,,860,Fe,Fe3O4,35,35,35,1,5,62.8,1910,37.5,220,0,0.3654,0,1.8
10.1021/acs.jpcc.7b01469,854,229,227,Fe,Fe3O4,50,Fe-Fe3O4,,,860,Fe,Fe3O4,10,10,10,1,25,,1765,37.7465,15,0,0.2535,1.8,
10.1021/acs.jpcc.7b01469,855,229,227,Fe,Fe3O4,50,Fe-Fe3O4,,,860,Fe,Fe3O4,10,10,10,1,100,,1170,31.3325,20,1,0,0,
10.1021/acs.jpcc.7b01469,856,229,227,Fe,Fe3O4,50,Fe-Fe3O4,,,860,Fe,Fe3O4,10,10,10,1,175,,875,26.275,13,1,0.615,1.8,
10.1021/acs.jpcc.7b01469,857,229,227,Fe,Fe3O4,50,Fe-Fe3O4,,,860,Fe,Fe3O4,10,10,10,1,250,,735,25,15,1,0.66,1.8,
10.1021/acs.jpcc.7b01469,858,229,227,Fe,Fe3O4,50,Fe-Fe3O4,,,860,Fe,Fe3O4,35,35,35,1,25,,1065.6,54.166,16.292,0,0.166,1,
10.1021/acs.jpcc.7b01469,859,229,227,Fe,Fe3O4,50,Fe-Fe3O4,,,860,Fe,Fe3O4,35,35,35,1,65,,868.891,51.15,0.109,0,0,0,
10.1021/acs.jpcc.7b01469,860,229,227,Fe,Fe3O4,50,Fe-Fe3O4,,,860,Fe,Fe3O4,35,35,35,1,75,,844.3,48.276,8.317,0,0.574,1,
10.1021/acs.jpcc.7b01469,861,229,227,Fe,Fe3O4,50,Fe-Fe3O4,,,860,Fe,Fe3O4,35,35,35,1,100,,688.5,43.6775,0.8,0,0.2875,1,
10.1021/acs.jpcc.7b01469,862,229,227,Fe,Fe3O4,50,Fe-Fe3O4,,,860,Fe,Fe3O4,35,35,35,1,250,,598.417,39.655,24.417,0,0.863,1,
10.1016/j.jmmm.2016.06.025,863,225,186,ZnO,0,20,ZnO,,,30,ZnO,0,25,853.65,0,6,,13811,174.68,,1.427,0,,,
10.1016/j.jmmm.2016.06.025,864,225,186,Al,ZnO,20,Al-ZnO,,,,Al,ZnO,25,357.75,0,6,,18787,166.69,,0.182,0,,,
10.1016/j.jmmm.2016.06.025,865,225,186,Al,ZnO,20,Al-ZnO,,,,Al,ZnO,25,280.7125,0,6,,18688,180.66,,3.374,0,,,
10.1016/j.jmmm.2016.06.025,866,225,186,Al,ZnO,20,Al-ZnO,,,,Al,ZnO,25,349.797,0,6,,23606,159.93,,0.888,0,,,
10.1016/j.jmmm.2016.06.025,867,225,186,Al,ZnO,20,Al-ZnO,,,,Al,ZnO,25,360,0,6,,24229,84.76,,1.422,1,,,
10.1016/j.jmmm.2016.06.025,868,225,186,Al,ZnO,20,Al-ZnO,,,,Al,ZnO,25,368.71,0,6,,4234,141.98,,0.711,0,,,
10.1016/j.jmmm.2016.06.025,869,225,186,Al,ZnO,20,Al-ZnO,,,,Al,ZnO,25,522.28,0,6,,82732,44.78,,0.4,1,,,
10.1016/j.jmmm.2016.06.025,870,225,186,Al,ZnO,20,Al-ZnO,,,,Al,ZnO,25,925.7,0,6,,106600,50.71,,1.31,1,,,
10.1016/j.jmmm.2016.06.025,871,225,186,Al,ZnO,20,Al-ZnO,,,,Al,ZnO,25,767.407,0,6,,7377,152.36,,6.045,0,,,
10.1016/j.jmmm.2016.06.025,872,225,186,Al,ZnO,20,Al-ZnO,,,,Al,ZnO,25,677.8,0,6,,10000,269.9,,38.2,0,,,
10.1016/j.jmmm.2016.06.025,873,225,186,Al,ZnO,20,Al-ZnO,,,,Al,ZnO,25,683.158,0,6,,62869,46.53,,0.13,0,,,
10.1039/c6ra20834g,874,64,167,Ga,Fe2O3,70,Ga-Fe2O3,,948,,Ga,Fe2O3,20,20,20,,10,,1954.353,0.1275,58,0,0.0045,1,7
10.1039/c6ra20834g,875,64,167,Ga,Fe2O3,70,Ga-Fe2O3,,948,,Ga,Fe2O3,20,20,20,,50,,3401.469,0.1185,52,0,0.0035,1,7
10.1039/c6ra20834g,876,64,167,Ga,Fe2O3,70,Ga-Fe2O3,,948,,Ga,Fe2O3,20,20,20,,150,,4132.5135,0.1215,16,0,0.0005,1,7
10.1039/c6ra20834g,877,64,167,Ga,Fe2O3,70,Ga-Fe2O3,,948,,Ga,Fe2O3,20,20,20,,200,,2595.9,0.122,29,1,0.003,1,7
10.1039/c6ra20834g,878,64,167,Ga,Fe2O3,70,Ga-Fe2O3,,948,,Ga,Fe2O3,20,20,20,,10,,2088.645,0.103,210,0,0.007,1,7
10.1039/c6ra20834g,879,64,167,Ga,Fe2O3,70,Ga-Fe2O3,,948,,Ga,Fe2O3,20,20,20,,50,,2118.482,0.094,164,0,0.003,1,7
10.1039/c6ra20834g,880,64,167,Ga,Fe2O3,70,Ga-Fe2O3,,948,,Ga,Fe2O3,20,20,20,,150,,1561.6195,0.0735,76,0,0.0005,1,7
10.1039/c6ra20834g,881,64,167,Ga,Fe2O3,70,Ga-Fe2O3,,948,,Ga,Fe2O3,20,20,20,,200,,1292.956,0.0665,64,0,0,0,7
10.1016/j.jmmm.2018.05.064,882,225,164,Ni,NiO2H2,20,Ni-Ni(OH)2,60,22,,Ni,NiO2H2,35,35,35,1,2,,74.385,3.93,24,0,0.017,1,5
10.1016/j.jmmm.2018.05.064,883,225,164,Ni,NiO2H2,20,Ni-Ni(OH)2,60,22,,Ni,NiO2H2,35,35,35,1,2,,43.9,3.88,7,1,0.067,1,5
10.1039/C8NR07642A,884,225,227,Au,Fe3O4,9,Au-Fe3O4,59,,850,Au,Fe3O4,25,25,25,1,2,67.85,441,35.365,19,0,4.503,1,5
10.1039/C8NR07642A,885,225,227,Au,Fe3O4,9,Au-Fe3O4,59,,850,Au,Fe3O4,28,28,28,1,2,51.94,455,18.62,51,0,1.765,1,5
10.1039/C8NR07642A,886,225,227,Au,Fe3O4,9,Au-Fe3O4,59,,850,Au,Fe3O4,31,31,31,1,2,43.3285,802.384,15.5,237,0,3.601,1,5
10.1021/acs.chemmater.7b05280,887,206,0,Mn2O3,0,50,Mn2O3,310,950,,Mn2O3,0,3.6,3.6,3.6,1,10,,570,,15,0,,,1
10.1021/acs.chemmater.7b05280,888,206,0,Mn2O3,0,50,Mn2O3,310,950,,Mn2O3,0,3.6,3.6,3.6,1,10,,260,,360,0,,,1
10.1021/acs.chemmater.7b05280,889,206,0,Mn2O3,0,50,Mn2O3,310,950,,Mn2O3,0,3.4,3.4,3.4,1,10,,500,,310,0,,,1
10.1021/acs.chemmater.7b05280,890,206,0,Mn2O3,0,50,Mn2O3,310,950,,Mn2O3,0,3.4,3.4,3.4,,10,,400,,340,0,,,1
10.1021/acs.chemmater.7b05280,891,206,0,Mn2O3,0,50,Mn2O3,310,950,,Mn2O3,0,3.6,3.6,3.6,1,60,0.16,7,,14,0,,,1
10.1021/acs.chemmater.7b05280,892,206,0,Mn2O3,0,50,Mn2O3,310,950,,Mn2O3,0,17,17,17,1,10,13.1,21,0.003,130,0,,,1
10.1021/acs.chemmater.7b05280,893,206,0,Mn2O3,0,50,Mn2O3,310,950,,Mn2O3,0,7.8,7.8,7.8,1,10,,52,,47,0,,,1
Alam M. N. Concentration-Dependent Magnetic Properties of MnxNiO1-x Novel Inverted Core-Shell Nanoparticles. – 2019.,894,225,225,NiO,Ni0.05Mn0.95O,15,NiO-Ni0.05Mn0.95O,,523,,NiO,Ni0.05Mn0.95O,30.6,30.6,30.6,1,5,,450,,159,0,,1,
Alam M. N. Concentration-Dependent Magnetic Properties of MnxNiO1-x Novel Inverted Core-Shell Nanoparticles. – 2019.,895,225,225,NiO,Ni0.065Mn0.935O,15,NiO-Ni0.065Mn0.935O,70,125,,NiO,Ni0.065Mn0.935O,32.2,32.2,32.2,1,5,1.277,4587.4,0.746,271,0,0.1,1,
Alam M. N. Concentration-Dependent Magnetic Properties of MnxNiO1-x Novel Inverted Core-Shell Nanoparticles. – 2019.,896,225,225,NiO,Ni0.08Mn0.92O,15,NiO-Ni0.08Mn0.92O,140,166,,NiO,Ni0.08Mn0.92O,29.7,29.7,29.7,1,5,0.955,4733,0.4495,1730,0,0.1345,1,
Alam M. N. Concentration-Dependent Magnetic Properties of MnxNiO1-x Novel Inverted Core-Shell Nanoparticles. – 2019.,897,225,225,NiO,Ni0.09Mn0.91O,15,NiO-Ni0.09Mn0.91O,71,132,,NiO,Ni0.09Mn0.91O,27.85,27.85,27.85,1,5,1.436,4067.7,0.8815,201,0,0.0695,1,
Alam M. N. Concentration-Dependent Magnetic Properties of MnxNiO1-x Novel Inverted Core-Shell Nanoparticles. – 2019.,898,225,225,NiO,Ni0.1Mn0.9O,15,NiO-Ni0.1Mn0.9O,55,80,,NiO,Ni0.1Mn0.9O,30.8,30.8,30.8,1,5,0.8435,659,0.456,203,0,0.036,1,
10.1002/ppsc.201900283,899,225,227,FeO,Fe3O4,10,FeO-Fe3O4,266,200,,FeO,Fe3O4,142,142,142,7,5,70,647.59,14,0,1,0,0,4.5
10.1002/ppsc.201900283,900,225,227,FeO,Fe3O4,10,FeO-Fe3O4,266,200,,FeO,Fe3O4,142,142,142,7,5,62,655.636,18.75,78.462,0,3.75,1,4.5
10.1016/j.jmmm.2020.167173,901,167,167,Cr2O3,Fe2O3,70,Cr2O3-Fe2O3,,289,,Cr2O3,Fe2O3,35,35,35,1,10,,503.7545,1.1055,62.0135,0,0.2425,1,4
10.1016/j.jmmm.2020.167173,902,167,167,Cr2O3,Fe2O3,70,Cr2O3-Fe2O3,,289,,Cr2O3,Fe2O3,33,33,33,1,10,,674.281,0.7655,62.043,0,0.1235,1,4
10.1016/j.jmmm.2020.167173,903,167,167,Cr2O3,Fe2O3,70,Cr2O3-Fe2O3,,289,,Cr2O3,Fe2O3,30,30,30,1,10,,,,128.6,0,0.257,1,4
10.1016/j.jmmm.2020.167173,904,167,167,Cr2O3,Fe2O3,70,Cr2O3-Fe2O3,,289,,Cr2O3,Fe2O3,34,34,34,1,10,,,,,,,,4
10.1016/j.jmmm.2020.167173,905,167,167,Cr2O3,Fe2O3,70,Cr2O3-Fe2O3,,289,,Cr2O3,Fe2O3,34,34,34,1,10,,631.624,0.386,143.324,0,0.076,1,4
10.1016/j.apsusc.2019.144224,906,194,167,Ti,Fe2O3,40,Ti-Fe2O3,,950,,Ti,Fe2O3,28,28,28,1,5,,195,,,,,0.01,
10.1016/j.apsusc.2019.144224,907,194,221,Ti,Fe2O3,40,Ti-Fe2O3,,950,,Ti,Fe2O3,43,43,43,1,5,,716,,,0.361,,0.01,
10.1016/j.apsusc.2019.144224,908,194,167,Ti,Fe2O3,40,Ti-Fe2O3,,950,,Ti,Fe2O3,44,44,44,1,5,,8537,,,,,0.01,
10.1016/j.apsusc.2019.144224,909,194,167,Ti,Fe2O3,40,Ti-Fe2O3,,950,,Ti,Fe2O3,45,45,45,1,5,,7324,,,,,0.01,
10.3390/magnetochemistry7110146,910,227,0,CoFe2O4,0,60,CoFe2O4,201,890,789,CoFe2O4,0,8,8,8,1,5,88,12000,53.68,0,1,2.959,1,5
10.3390/magnetochemistry7110146,911,227,227,CoFe2O4,NiFe2O4,60,CoFe2O4-NiFe2O4,259,,,CoFe2O4,NiFe2O4,9,9,9,1,5,79,15000,60.04,333.3,0,4.37,1,5
10.3390/magnetochemistry7110146,912,227,225,CoFe2O4,NiO,60,CoFe2O4-NiO,200,796,,CoFe2O4,NiO,8.5,8.5,8.5,1,5,84,20000,62.16,443.2,0,1,1,5
10.1016/j.jallcom.2021.160579,913,225,221,Ni,BaTiO3,50,Ni-BaTiO3,,,631,Ni,BaTiO3,55,55,55,1,2,53.2,224,12.1,13,0,0.7,1,2
10.1016/j.jallcom.2021.160579,914,225,221,Ni,BaTiO3,50,Ni-BaTiO3,,,631,Ni,BaTiO3,55,55,55,1,2,54.6,265,16.2,27.88,0,3.222,1,0.1
10.1016/j.ssc.2022.114865,915,167,227,Cr2O3,CoFe2O4,30,Cr2O3-CoFe2O4,,307,793,Cr2O3,CoFe2O4,23,23,23,4,60,35.59,9631.1975,26.2,226.5605,0,12.72,1,0.1
10.1016/j.ssc.2022.114865,916,167,227,Cr2O3,CoFe2O4,30,Cr2O3-CoFe2O4,,307,793,Cr2O3,CoFe2O4,23,23,23,4,100,35.3615,8468.9475,24.038,90.0845,0,0.596,1,0.1
10.1016/j.ssc.2022.114865,917,167,227,Cr2O3,CoFe2O4,30,Cr2O3-CoFe2O4,,307,793,Cr2O3,CoFe2O4,23,23,23,4,200,35.609,4155.25,17.944,54.588,1,0,0,0.1
10.1016/j.ssc.2022.114865,918,167,227,Cr2O3,CoFe2O4,30,Cr2O3-CoFe2O4,,307,793,Cr2O3,CoFe2O4,23,23,23,4,300,34.666,2615.7405,14.1485,115.7405,0,0.1885,0,0
10.1016/j.ssc.2022.114865,919,167,227,Cr2O3,CoFe2O4,30,Cr2O3-CoFe2O4,,307,793,Cr2O3,CoFe2O4,14,14,14,4,60,33.3745,7572,24.105,48.19,0,0,1,0.1
10.1016/j.ssc.2022.114865,920,167,227,Cr2O3,CoFe2O4,30,Cr2O3-CoFe2O4,,307,793,Cr2O3,CoFe2O4,14,14,14,4,100,32.5,5740.5415,22.2065,89.6004,0,1.0305,0,0.1
10.1016/j.ssc.2022.114865,921,167,227,Cr2O3,CoFe2O4,30,Cr2O3-CoFe2O4,,307,793,Cr2O3,CoFe2O4,14,14,14,4,200,29.7225,2201.8615,15,45.7505,1,0.1,1,0.1
10.1016/j.ssc.2022.114865,922,167,227,Cr2O3,CoFe2O4,30,Cr2O3-CoFe2O4,,307,793,Cr2O3,CoFe2O4,14,14,14,4,300,26.5865,1041.6555,9.519,24.1535,0,4.9035,1,0.01