link,id,space_group_core,space_group_shell,core,shell,h_range_max_koe,chemical formula,Tb,TN,Tc,c1,c2,x,y,z,shape,temperature_k,sat_em_g,coer_oe,mr (emu/g),exc_bias_oe,exc_dir,ver_shift_emu_g,ver_s_dir,fc_field_t
10.1063/1.2219691,1223,229,225,Fe,FeO,20,Fe-FeO,353,471,1043,Fe,FeO,7.5,7.5,7.5,,5,20,1658.13,11.6,286.7,0,1.3,1,2
10.1063/1.2219691,1224,229,225,Fe,FeO,20,Fe-FeO,353,471,1043,Fe,FeO,10,10,10,,5,18,2371.6,9.125,1628.74,0,4.425,1,2
10.1016/j.jmmm.2009.01.037,1225,167,227,Fe2O3,Fe3O4,50,Fe2O3-Fe3O4,322,948,858,Fe2O3,Fe3O4,9,9,9,1,10,20,792,9,9,1,1,0,
10.1016/j.jmmm.2009.01.037,1226,167,227,Fe2O3,Fe3O4,50,Fe2O3-Fe3O4,567,948,858,Fe2O3,Fe3O4,9,9,9,1,10,57,763.21,28,42.21,,0,0,
10.1016/j.jmmm.2009.01.037,1227,167,227,Fe2O3,Fe3O4,50,Fe2O3-Fe3O4,435,948,858,Fe2O3,Fe3O4,9,9,9,1,10,16.7,1051.25,6,56.35,1,0.22,1,
10.1016/j.jmmm.2009.01.037,1228,167,227,Fe2O3,Fe3O4,50,Fe2O3-Fe3O4,724,948,858,Fe2O3,Fe3O4,9,9,9,1,10,16.65,1055.94,7.9,86.996,1,0.702,0,
10.1103/PhysRevB.79.115210,1229,194,166,Co,CoO,40,Co-CoO,,293,1388,Co,CoO,9,9,9,1,10,,4800,,3000,1,,,5
10.1088/0022-3727/42/13/135002,1230,123,0,PtMn,0,30,PtMn,,975,,PtMn,0,2.27,2.27,2.27,,5,,4800,,1200,,,,1
10.1088/0022-3727/42/13/135002,1231,123,0,PtMn,0,30,PtMn,,975,,PtMn,0,3.09,3.09,3.09,,5,,3800,,3000,,,,1
10.1088/0022-3727/42/13/135002,1232,123,0,PtMn,0,30,PtMn,,975,,PtMn,0,4.11,4.11,4.11,,5,,1100,,1100,,,,1
10.1063/1.3132056,1233,225,225,Ni,NiO,50,Ni-NiO,,796,631,Ni,NiO,18,18,18,1,250,19,990,1.8,600,0,0,0,2
10.1063/1.3132056,1234,225,225,Ni,NiO,50,Ni-NiO,,796,631,Ni,NiO,18,18,18,1,5,6,383.4,1.3,92.2,0,0,0,5
10.1063/1.3055349,1235,167,141,Mn2O3,Mn3O4,50,Mn2O3-Mn3O4,,353,316,Mn2O3,Mn3O4,50,50,50,1,5,34.6,10454.3,20.28,900.5,0,2.55,1,5
10.1063/1.3055349,1236,167,141,Mn2O3,Mn3O4,50,Mn2O3-Mn3O4,,353,316,Mn2O3,Mn3O4,50,50,50,1,5,33.75,13405.65,15.34,2044.9,0,4.09,1,5
10.1063/1.3055349,1237,167,141,Mn2O3,Mn3O4,50,Mn2O3-Mn3O4,,353,316,Mn2O3,Mn3O4,50,50,50,1,5,33.41,10679,11.93,1136.01,0,2.05,1,5
10.1088/0022-3727/41/10/105005,1238,227,15,Fe3O4,Cr2O3,40,Fe3O4-Cr2O3,,307,858,Fe3O4,Cr2O3,12,12,12,,10,6.49,5439.23,2.25,2573.82,0,0.817,1,1
10.1088/0022-3727/41/10/105005,1239,227,15,Fe3O4,Cr2O3,40,Fe3O4-Cr2O3,,307,858,Fe3O4,Cr2O3,12,12,12,,10,17.176,6318.3,8.25,2136.95,0,1.677,1,1
10.1016/j.jallcom.2008.07.097,1240,167,227,Fe2O3,Fe3O4,10,Fe2O3-Fe3O4,,948,858,Fe2O3,Fe3O4,7,7,7,1,,0.4285,367.94,0.047,191.47,0,0.02,1,0.5
10.1016/j.jallcom.2008.07.097,1241,167,227,Fe2O3,Fe3O4,10,Fe2O3-Fe3O4,,948,858,Fe2O3,Fe3O4,7,7,7,1,,11.166,2347.182,5.46,716.992,0,0.93,1,0.5
10.1016/j.jallcom.2008.07.097,1242,167,227,Fe2O3,Fe3O4,10,Fe2O3-Fe3O4,,948,858,Fe2O3,Fe3O4,7,7,7,1,,39.125,1602.94,21.65,397.06,0,3.174,1,0.5
10.1016/j.jallcom.2008.07.097,1243,167,227,Fe2O3,Fe3O4,10,Fe2O3-Fe3O4,,948,858,Fe2O3,Fe3O4,7,7,7,1,,52.862,1667.94,26.949,384.94,0,4.51,1,0.5
10.1016/j.jallcom.2008.07.097,1244,167,227,Fe2O3,Fe3O4,10,Fe2O3-Fe3O4,,948,858,Fe2O3,Fe3O4,7,7,7,1,10,50.965,1636.5,26.385,409.02,0,4.735,1,3
10.1016/j.jallcom.2008.07.097,1245,167,227,Fe2O3,Fe3O4,10,Fe2O3-Fe3O4,,948,858,Fe2O3,Fe3O4,7,7,7,1,10,59.99,1204.6,26.65,318.236,0,6.35,1,3
10.1016/j.jallcom.2008.07.097,1246,167,227,Fe2O3,Fe3O4,10,Fe2O3-Fe3O4,,948,858,Fe2O3,Fe3O4,7,7,7,1,10,69.23,1011.43,28.64,124.78,0,4.28,1,3
10.1016/j.jallcom.2008.07.097,1247,167,227,Fe2O3,Fe3O4,10,Fe2O3-Fe3O4,,948,858,Fe2O3,Fe3O4,7,7,7,1,10,74.192,1011.43,29.32,170.521,0,2.22,1,3
10.1016/j.physb.2008.03.024,1248,227,0,Co3O4,0,40,Co3O4,,50,,Co3O4,0,30,30,30,1,5,,104.6,0.015,390,0,0.015,1,
10.1088/0957-4484/15/4/033,1249,221,0,CoNi,0,,Co80Ni20,,,1100,Co,Ni,40,40,40,1,5,44.772,856,17.4,836,,25.862,1,0
10.1088/0957-4484/15/4/033,1250,221,0,CoNi,0,,Co80Ni20,,,1100,Co,Ni,40,40,40,1,5,50.5,2119,10.39,2535,,10.39,1,6
10.1063/1.2927458,1251,221,225,Fe2O3,NiO,20,Fe2O3-NiO,229,796,,Fe2O3,NiO,12,12,12,1,5,4.9,598.336,0.77,901.688,0,0.29,1,2
10.1063/1.2927458,1252,167,225,Fe2O3,NiO,20,Fe2O3-NiO,240,796,,Fe2O3,NiO,30,30,30,1,5,13.35,1028.06,1.393,1971.821,0,3.568,0,2
10.1063/1.2927458,1253,221,225,Fe2O3,NiO,20,Fe2O3-NiO,229,796,,Fe2O3,NiO,12,12,12,1,5,11.25,522.439,1.006,83.939,0,0.255,1,2
10.1063/1.2927458,1254,167,225,Fe2O3,NiO,20,Fe2O3-NiO,240,796,,Fe2O3,NiO,30,30,30,1,5,5.865,969.08,0.899,1896.141,0,0.899,0,2
10.1063/1.2927458,1255,221,225,Fe2O3,NiO,20,Fe2O3-NiO,229,796,,Fe2O3,NiO,12,12,12,1,5,11.518,438.3,3.114,16.978,0,0.034,1,2
10.1063/1.2927458,1256,167,225,Fe2O3,NiO,20,Fe2O3-NiO,269,796,,Fe2O3,NiO,30,30,30,1,5,1.528,438.2555,0.329,335.7435,0,0.329,1,2
10.1063/9.0000547,1257,227,167,Fe3O4,Fe2O3,10,Fe3O4-Fe2O3,225,,,Fe3O4,Fe2O3,35,6,0,6,10,61.1,280.715,15.315,37.404,0,2.095,1,1
10.1063/9.0000547,1258,227,167,Fe3O4,Fe2O3,10,Fe3O4-Fe2O3,250,,,Fe3O4,Fe2O3,35,6,0,6,10,30.4,383.065,11.85,50.565,0,1.85,1,1
10.1063/9.0000547,1259,227,167,Fe3O4,Fe2O3,10,Fe3O4-Fe2O3,300,,,Fe3O4,Fe2O3,35,6,0,6,10,52.92,520.35,16.84,38.7,0,1.55,1,1
10.1063/9.0000547,1260,227,167,Fe3O4,Fe2O3,10,Fe3O4-Fe2O3,325,,,Fe3O4,Fe2O3,35,6,0,6,10,12.84,440.44,3.15,40.46,0,0.35,1,1
10.1007/s10853-023-09277-7,1261,225,225,Ni,NiO,25,Ni-NiO,34,523,627,Ni,NiO,70,70,70,1,8,26.6,634,21.5,130,0,,,1.5
10.1007/s10853-023-09277-7,1262,225,225,Ni,NiO,25,Ni-NiO,34,523,627,Ni,NiO,70,70,70,1,8,26.4,641,21.5,137,0,,,1.5
10.1007/s10853-023-09277-7,1263,225,225,Ni,NiO,25,Ni-NiO,34,523,627,Ni,NiO,70,70,70,1,8,15.2,379,8.9,38,0,,,1.5
10.1007/s10853-023-09277-7,1264,225,225,Ni,NiO,25,Ni-NiO,34,523,627,Ni,NiO,70,70,70,1,8,14.7,547,10.7,73,0,,,1.5
10.1007/s10853-023-09277-7,1265,225,225,Ni,NiO,25,Ni-NiO,34,523,627,Ni,NiO,70,70,70,1,8,16,534,13,81,0,,,1.5
10.1007/s10853-023-09277-7,1266,225,225,Ni,NiO,25,Ni-NiO,34,523,627,Ni,NiO,70,70,70,1,8,16.5,756,12.8,109,0,,,1.5
10.1021/acs.chemmater.2c02813,val 1,225,227,Co0.14Fe0.86O,Co0.4Fe2.4O4,90,Co0.14Fe0.86O-Co0.4Fe2.4O4,,198,580,Co0.14Fe0.86O,Co0.4Fe2.4O4,8,8,8,1,10,321.54,18214,,11429,0,,1,4
10.1021/acs.chemmater.2c02813,val 2,225,227,Co0.14Fe0.86O,Co0.4Fe2.4O4,90,Co0.14Fe0.86O-Co0.4Fe2.4O4,,198,580,Co0.14Fe0.86O,Co0.4Fe2.4O4,8,8,8,1,50,381.76,9464,,3739,0,,1,4
10.1021/acs.chemmater.2c02813,val 3,225,227,Co0.08Fe0.92O,Co0.58Fe2.28O4,90,Co0.08Fe0.92O-Co0.58Fe2.28O4,,198,580,Co0.08Fe0.92O,Co0.58Fe2.28O4,14,14,14,1,80,361.73,6252.5,,2307.73,0,,1,4
10.1038/s41598-024-65757-z,val 4,62,0,LaFeO3,0,90,LaFeO3,30,740,,LaFeO3,0,30,30,30,1,4,0.9305,5866.8,0.0575,10895.95,0,0.1135,1,0.5
10.1038/s41598-024-65757-z,val 5,229,62,Eu0.3,La0.7FeO3,90,Eu0.3-La0.7FeO3,,700,,Eu0.3,La0.7FeO3,18,18,18,1,4,2.513,990.475,0.0765,1832.026,0,0.1205,1,0.5
10.1038/s41598-024-65757-z,val 6,229,62,Eu0.3,La0.7Fe0.95Cr0.05O3,90,Eu0.3-La0.7Fe0.95Cr0.05O3,,600,,Eu0.3,La0.7Fe0.95Cr0.05O3,21,21,21,1,4,2.305,686.8,0.035,2288.613,0,0.105,1,0.5
10.1021/acsami.3c18334,val 7,65,227,LiFe3O4,Fe3O4,50,LiFe3O4-Fe3O4,,75,,LiFe3O4,Fe3O4,73,73,73,3,10,45.5,395.64,13.25,228.73,0,2.85,1,5
10.1021/acsami.3c18334,val 8,65,227,Li1.5Fe3O4,Fe3O4,50,Li1.5Fe3O4-Fe3O4,,78,,Li1.5Fe3O4,Fe3O4,86,86,86,3,10,66.5,223.91,20,67.39,0,2.468,1,5
10.1016/j.rinp.2024.107469,val 9,225,186,FeO,FeZnO,40,FeO-Fe-ZnO,600,200.5,1043,FeO,FeZnO,32,32,32,1,5,2.2,490.5,0.045,243.1,0,0,0,0.05
10.1016/j.rinp.2024.107469,val 10,225,186,FeO,FeZnO,40,FeO-Fe-ZnO,600,208.2,1043,FeO,FeZnO,75,75,75,1,5,2.9,598.9,0.192,143.7,0,0,0,0.05
10.1016/j.rinp.2024.107469,val 11,225,186,FeO,FeZnO,40,FeO-Fe-ZnO,600,198,1043,FeO,FeZnO,31,31,31,1,5,3,268.4,0.058,13.7,0,0.05,1,0.05
10.1016/j.rinp.2024.107469,val 12,225,186,FeO,FeZnO,40,FeO-Fe-ZnO,600,196,1043,FeO,FeZnO,32,32,32,1,5,28.5,393.5,2.199,226.5,0,0.043,1,0.05
10.1016/j.matchemphys.2023.127759,val 13,225,167,NiO,NiFe2O4,40,NiO-NiFe2O4-Fe2O3,257,737,850,NiO,NiFe2O4/Fe2O3,26,26,26,1,10,1.83,1065.1,0.3,265.1,0,0.059,1,0.05
10.1016/j.matchemphys.2023.127759,val 14,225,167,NiO,NiFe2O4,40,NiO-NiFe2O4-Fe2O3,257,737,850,NiO,NiFe2O4/Fe2O3,26,26,26,1,50,1.75,900,0.342,110,0,0.033,1,0.1
10.1016/j.matchemphys.2023.127759,val 15,225,167,NiO,NiFe2O4,30,NiO-NiFe2O4-Fe2O3,257,737,850,NiO,NiFe2O4/Fe2O3,25,25,25,1,10,1.643,1126.35,0.396,9.77,0,0.029,0,0.05
10.1016/j.matchemphys.2023.127759,val 16,225,167,NiO,NiFe2O4,30,NiO-NiFe2O4-Fe2O3,257,737,850,NiO,NiFe2O4/Fe2O3,25,25,25,1,50,1.655,1052.63,0.382,20.19,0,0.025,1,0.1
10.1016/j.jmmm.2023.170875,val 17,163,129,Cr2Te3,FeTe,30,Cr2Te3-FeTe,,,260,Cr2Te3,FeTe,15,15,15,1,1.8,7.24,2571.81,3.388,37.05,0,0.228,1,0.05
10.1016/j.jmmm.2023.170875,val 18,163,139,Cr2Te3,FeTe0.395,30,Cr2Te3-FeTe0.395,,,183,Cr2Te3,FeTe0.395,15,15,15,1,1.8,3.55,2453.95,0.955,162.24,0,0.284,1,0.05
10.1016/j.jmmm.2023.170875,val 19,163,139,Cr2Te3,FeTe0.252,30,Cr2Te3-FeTe0.252,,,170,Cr2Te3,FeTe0.252,481,4,0,6,1.8,9.15,1326.68,4.21,523.45,0,1.049,1,0.05
10.1016/j.jmmm.2023.170875,val 20,163,129,Cr2Te3,FeTe1.125,30,Cr2Te3-FeTe1.125,,,167,Cr2Te3,FeTe1.125,481,4,0,6,1.8,20.07,857.88,8,216.14,0,1.42,1,0.05
10.1016/j.jmmm.2023.170875,val 21,163,58,Cr2Te3,FeTe2,30,Cr2Te3-FeTe2,,,67,Cr2Te3,FeTe2,481,8,0,6,1.8,7.96,877.19,2.5,297.69,0,1.439,1,0.05
10.1016/j.jallcom.2023.172646,val 22,62,0,LaFeO3,0,20,LaFeO3,30,740,,LaFeO3,0,,,,,150,0.216,50,0.01,25,0,0.01,1,2
10.1016/j.jallcom.2023.172646,val 23,62,0,PrFeO3,0,20,PrFeO3,,430,,PrFeO3,0,,,,,150,0.677,100,0.0035,11,0,0.0005,1,2
10.1016/j.jallcom.2023.172646,val 24,62,0,NdFeO3,0,20,NdFeO3,,600,,NdFeO3,0,,,,,150,1.335,245.45,0.178,13.63,0,0.018,1,2
10.1016/j.jallcom.2023.172646,val 25,62,0,SmFeO3,0,20,SmFeO3,,130,,SmFeO3,0,,,,,150,0.2865,170.4,0.0045,69.6,0,0.0025,1,2
10.1038/s41467-024-47537-5,val 26,15,0,NiFe2O4,BiFeO3,10,NiFe2O4-BiFeO3,315,749,1103,NiFe2O4,BiFeO3,94,94,94,3,300,17.22,158.59,1.3265,36.9,0,0.3315,1,
10.1109/TMAG.2024.3418626,val 27,161,0,BiFeO3,0,70,BiFeO3-SG,200,640,1103,BiFeO3,0,,,,1,2,,2558,,1989,0,,1,7
10.1109/TMAG.2024.3418626,val 28,161,0,BiFeO3,0,70,BiFeO3-SG,200,640,1103,BiFeO3,0,,,,1,2,,1923,,1180,0,,1,7
10.1109/TMAG.2024.3418626,val 29,161,0,BiFeO3,0,70,BiFeO3-SG,200,640,1103,BiFeO3,0,,,,1,2,,450,,126,0,,1,7
10.1016/j.ceramint.2019.02.028,val 30,15,225,NiCo2O4,NiO,30,NiCo2O4-NiO,75,490,,NiCo2O4,NiO,50,50,50,1,10,0.845,619.815,0.107,432.315,0,0.081,1,0.3
10.1016/j.ceramint.2019.02.028,val 31,15,225,NiCo2O4,NiO,30,NiCo2O4-NiO,75,490,,NiCo2O4,NiO,50,50,50,1,30,0.783,289.735,0.65,289.735,0,0.65,1,0.3
10.1016/j.ceramint.2019.02.028,val 32,15,225,NiCo2O4,NiO,30,NiCo2O4-NiO,75,490,,NiCo2O4,NiO,50,50,50,1,200,0.67,358.22,0.639,358.22,0,0.639,1,0.3