link,id,space_group_core,space_group_shell,core,shell,h_range_max_koe,chemical formula,Tb,TN,Tc,c1,c2,x,y,z,shape,temperature_k,sat_em_g,coer_oe,mr (emu/g),exc_bias_oe,exc_dir,ver_shift_emu_g,ver_s_dir,fc_field_t
10.3390/magnetochemistry7030040,614,194,227,Co,Co3O4,50,Co-Co3O4,50,40,1388,Co,Co3O4,25,25,25,1,25,24.65,1879.33,14,564.33,0,,1,
10.3390/magnetochemistry7030040,615,194,227,Co,Co3O4,50,Co-Co3O4,50,40,1388,Co,Co3O4,25,25,25,1,37,24.6,1786.825,14,471.825,0,,1,
10.3390/magnetochemistry7030040,616,194,227,Co,Co3O4,50,Co-Co3O4,50,40,1388,Co,Co3O4,25,25,25,1,50,23.5,1749.75,11.5,534.75,0,,1,
10.3390/magnetochemistry7030040,617,194,227,Co,Co3O4,50,Co-Co3O4,50,40,1388,Co,Co3O4,25,25,25,1,200,22,1157.25,8.5,9.25,0,,1,
10.1021/acs.chemmater.2c02813,618,227,227,Co0.14Fe0.86O,Co0.4Fe2.4O4,90,Co0.14Fe0.86O-Co0.4Fe2.4O4,100,850,789,Co0.14Fe0.86O,Co0.4Fe2.4O4,8,8,8,1,10,,17707,,11424,0,0,1,4
10.1021/acs.chemmater.2c02813,619,227,227,Co0.14Fe0.86O,Co0.4Fe2.4O4,90,Co0.14Fe0.86O-Co0.4Fe2.4O4,100,850,789,Co0.14Fe0.86O,Co0.4Fe2.4O4,8,8,8,1,50,,6283,,3985.5,0,0,1,4
10.1021/acs.chemmater.2c02813,620,227,227,Co0.14Fe0.86O,Co0.4Fe2.4O4,90,Co0.14Fe0.86O-Co0.4Fe2.4O4,100,850,789,Co0.14Fe0.86O,Co0.4Fe2.4O4,8,8,8,1,80,,,,939,0,0,1,4
10.1016/j.jmmm.2023.171401,621,194,227,Co,CoFe2O4,70,Co-CoFe2O4,103,,1090,Co,CoFe2O4,,,,,,,,,5600,0,0,1,7
/10.1016/j.jmmm.2023.171401,622,225,227,CoO,MnFe2O4,85,CoO-MnFe2O4,,325,573,CoO,MnFe2O4,,,,,5,,2340,,,0,0,1,
/10.1016/j.jmmm.2023.171401,623,225,227,CoO,MnFe2O4,85,CoO-MnFe2O4,,325,573,CoO,MnFe2O4,,,,,20,,475,,,0,0,1,
10.1088/1361-6528/ac6dc3,624,225,227,NiO,SiO2,50,NiO-SiO2,,525,85,NiO,SG,14.7,14.7,14.7,1,,0.745,450,0.4,0,1,0,0,0
10.1088/1361-6528/ac6dc3,625,225,227,NiO,SiO2,50,NiO-SiO2,,525,85,NiO,SG,15,15,15,1,,1.53,553.7,0.45,299.5,0,0.25,1,5
10.1016/j.jmmm.2024,626,194,225,Co,CoO,10,Co-CoO,50,291,1388,Co,CoO,,,,,77,30.84,1201.2,5.76,0,1,0,1,
10.1016/j.jmmm.2024,627,194,225,Co,CoO,10,Co-CoO,50,291,1388,Co,CoO,,,,,77,32.88,1999.2,25,1532.8,0,0,1,
doi.org/10.1039/C7NR03740F,628,225,227,CoO,Fe3O4,45,CoO-Fe3O4,,291,858,CoO,Fe3O4,12,12,12,1,5,36.72,22179.811,34.74,85.322,0,0,1,0.005
doi.org/10.1039/C7NR03740F,629,225,227,CoO,Zn0.25Fe2O4,45,CoO-Zn0.25Fe2O4,122,291,860,CoO,Zn0.25Fe2O4,10,10,10,1,5,29.18,15321.4,20.32,1451.3,0,0,1,1
doi.org/10.1039/C7NR03740F,630,225,227,CoO,Zn0.5Fe2O4,45,CoO-Zn0.5Fe2O4,112,291,860,CoO,Zn0.5Fe2O4,10.5,10.5,10.5,1,5,28.2,11612.5,20.32,1452.54,0,0,1,1
doi.org/10.1039/C7NR03740F,631,225,227,CoO,Zn0.75Fe2O4,45,CoO-Zn0.75Fe2O4,137,291,860,CoO,Zn0.75Fe2O4,11.7,11.7,11.7,1,5,26.88,9355,16.72,1291.54,0,0,1,1
doi.org/10.1039/C7NR03740F,632,225,227,CoO,ZnFe2O4,45,CoO-ZnFe2O4,123,289,860,CoO,ZnFe2O4,10.4,10.4,10.4,1,5,38.69,7422.33,25.89,470.93,0,0,1,1
10.1063/5.0016646,633,225,225,Ni,NiO,70,Ni-NiO,350,796,720,Ni,NiO,12,12,12,1,300,26,615,7.34,0,1,0,1,0
10.1063/5.0016646,634,225,255,Ni,NiO,70,Ni-NiO,350,796,720,Ni,NiO,12,12,12,1,5,26,650,9.2,250,0,4,1,2
10.1016/j.jmmm.2020.167228,635,227,225,Fe,FeO,10,Fe-FeO,50,948,1043,Fe,FeO,210,210,210,3,300,207.4,88.9,5.96,2.48,0,0,1,0.5
10.1016/j.jmmm.2020.167228,636,227,225,Fe,FeO,10,Fe-FeO,50,948,1043,Fe,FeO,110,110,110,3,300,192.6,134.57,11.15,3.7,1,0,1,0.5
10.1016/j.jmmm.2020.167228,637,227,225,Fe,FeO,10,Fe-FeO,50,948,1043,Fe,FeO,90,90,90,3,300,174.1,180.25,14.42,0,1,0,1,0.5
10.1016/j.jmmm.2020.167228,638,227,225,Fe,FeO,10,Fe-FeO,50,948,1043,Fe,FeO,85,85,85,3,300,172.22,219.75,19.62,2.45,0,0,1,0.5
10.1016/j.jmmm.2020.167228,639,227,225,Fe,FeO,10,Fe-FeO,50,948,1043,Fe,FeO,55,55,55,3,300,161.1,325.935,26.534,4.935,0,0,1,0.5
10.1016/j.jmmm.2020.167228,640,227,225,Fe,FeO,10,Fe-FeO,50,948,1043,Fe,FeO,50,50,50,3,300,151.85,325.935,29,7.407,1,0,1,0.5
10.1016/j.jmmm.2020.167228,641,227,225,Fe,FeO,10,Fe-FeO,50,948,1043,Fe,FeO,19,19,19,3,300,120.4,261.73,17.11,4.95,1,0,1,0.5
10.1016/j.jmmm.2019.165940,642,227,194,CoFe2O4,Ag,50,CoFe2O4-Ag,300,,850,CoFe2O4,Ag,11.3,11.3,11.3,1,300,36,16600,19.4,0,1,0,1,0
10.1016/j.jmmm.2019.165940,643,227,194,CoFe2O5,Ag,50,CoFe2O4-Ag,300,,850,CoFe2O4,Ag,11.4,11.4,11.4,1,300,20,16600,8.5,0,1,0,1,0
10.1016/j.jmmm.2019.165940,644,227,194,CoFe2O6,Ag,50,CoFe2O4-Ag,300,,850,CoFe2O4,Ag,11.4,11.4,11.4,1,300,6,13060,2,0,1,0,1,0
10.1016/j.jmmm.2019.165940,645,227,194,CoFe2O7,Ag,100,CoFe2O4-Ag,300,,850,CoFe2O4,Ag,11.3,11.3,11.3,1,4,37,17000,21,800,0,0,1,3
10.1016/j.jmmm.2019.165940,646,227,194,CoFe2O8,Ag,100,CoFe2O4-Ag,300,,850,CoFe2O4,Ag,11.4,11.4,11.4,1,4,20,17000,9.1,1500,0,0,1,3
10.1016/j.jmmm.2019.165940,647,227,194,CoFe2O9,Ag,100,CoFe2O4-Ag,300,,850,CoFe2O4,Ag,11.4,11.4,11.4,1,4,10,14000,2.3,1650,0,0,1,3
10.1039/C8NR02368A,648,227,221,CoFe2O4,BaTiO3,10,CoFe2O4-BaTiO3,,,850,CoFe2O4,BaTiO3,60,60,60,1,300,25,985,10.2,0,1,0,1,0
10.1088/2053-1591/ab7e6e,649,227,225,CoFe2O4,NiO,40,CoFe2O4-NiO,200,525,658,CoFe2O4,NiO,,100,0,6,300,26,442,10,1,0,0,1,0
10.1088/2053-1591/ab7e6e,650,227,225,CoFe2O4,NiO,40,CoFe2O4-NiO,200,525,658,CoFe2O4,NiO,,100,0,6,300,38,476,16,1,0,0,1,0
10.1088/2053-1591/ab7e6e,651,227,225,CoFe2O4,NiO,40,CoFe2O4-NiO,200,525,658,CoFe2O4,NiO,,100,0,6,300,43,543,8,2,0,0,1,0
10.1088/2053-1591/ab7e6e,652,227,225,CoFe2O4,NiO,40,CoFe2O4-NiO,200,525,658,CoFe2O4,NiO,,100,0,6,300,31,363,4,2,0,0,1,0
10.1088/2053-1591/ab7e6e,653,227,225,CoFe2O4,NiO,40,CoFe2O4-NiO,200,525,658,CoFe2O4,NiO,,100,0,6,5,29,4076,22,80,0,0,1,5
10.1088/2053-1591/ab7e6e,654,227,225,CoFe2O4,NiO,40,CoFe2O4-NiO,200,525,658,CoFe2O4,NiO,,100,0,6,5,41,7649,33,177,0,0,1,5
10.1088/2053-1591/ab7e6e,655,227,225,CoFe2O4,NiO,40,CoFe2O4-NiO,200,525,658,CoFe2O4,NiO,,100,0,6,5,47,11890,32,763,0,0,1,5
10.1088/2053-1591/ab7e6e,656,227,225,CoFe2O4,NiO,40,CoFe2O4-NiO,200,525,658,CoFe2O4,NiO,,100,0,6,5,35,11343,22,593,0,0,1,5
10.1140/epjp/s13360-020-00430-8,657,227,167,MnFe2O4,Fe2O3,16,MnFe2O4-Fe2O3,,948,573,MnFe2O4,Fe2O3,5,5,5,1,5,9.1,4810,,1100,0,0,1,
10.1140/epjp/s13360-020-00430-8,658,227,167,MnFe2O4,Fe2O3,16,MnFe2O4-Fe2O3,,948,573,MnFe2O4,Fe2O3,19,19,19,1,5,11.6,4520,,270,0,0,1,
10.1140/epjp/s13360-020-00430-8,659,227,167,MnFe2O4,Fe2O3,16,MnFe2O4-Fe2O3,,948,573,MnFe2O4,Fe2O3,21,21,21,1,5,13.6,2170,,181,0,0,1,
10.1140/epjp/s13360-020-00430-8,660,227,167,MnFe2O4,Fe2O3,16,MnFe2O4-Fe2O3,,948,573,MnFe2O4,Fe2O3,28,28,28,1,5,14.5,1680,,97,0,0,1,
10.1140/epjp/s13360-020-00430-8,661,227,167,MnFe2O4,Fe2O3,16,MnFe2O4-Fe2O3,,948,573,MnFe2O4,Fe2O3,5,5,5,1,300,2.7,177,,0,1,0,1,0
10.1140/epjp/s13360-020-00430-8,662,227,167,MnFe2O4,Fe2O3,16,MnFe2O4-Fe2O3,,948,573,MnFe2O4,Fe2O3,19,19,19,1,300,3.5,88,,0,1,0,1,0
10.1140/epjp/s13360-020-00430-8,663,227,167,MnFe2O4,Fe2O3,16,MnFe2O4-Fe2O3,,948,573,MnFe2O4,Fe2O3,21,21,21,1,300,3.4,14,,0,1,0,1,0
10.1140/epjp/s13360-020-00430-8,664,227,167,MnFe2O4,Fe2O3,16,MnFe2O4-Fe2O3,,948,573,MnFe2O4,Fe2O3,28,28,28,1,300,4.5,48,,0,1,0,1,0
10.3390/applnano1010007,665,194,229,Co,Cr,50,Co-Cr,96,311,1388,Co,Cr,5.6,5.6,5.6,1,5,,4112.35,,1594.35,0,,,1
10.3390/applnano1010007,666,194,229,Co,Cr,50,Co-Cr,96,311,1388,Co,Cr,6.9,6.9,6.9,1,5,,3668.12,,1150.12,0,0,1,1
10.3390/applnano1010007,667,194,229,Co,Cr,50,Co-Cr,96,311,1388,Co,Cr,5.6,5.6,5.6,1,300,,26,,0,1,0,1,0
10.3390/applnano1010007,668,194,229,Co,Cr,50,Co-Cr,96,311,1388,Co,Cr,6.9,6.9,6.9,1,300,,78,,0,1,0,1,0
10.1016/j.materresbull.2020.110785,669,91,0,Zn0.2Ni0.8Gd0.05 Fe1.95O4,0,,Zn0.2Ni0.8Gd0.05Fe1.95O4,81,,535,Zn0.2Ni0.8Gd0.05Fe1.95O4,0,4,4,4,1,5,15.1,2585,15.6,925,0,0,1,0.05
10.1016/j.materresbull.2020.110785,670,91,0,Zn0.2Ni0.8Gd0.05 Fe1.95O4,0,,Zn0.2Ni0.8Gd0.05Fe1.95O4,134,,535,Zn0.2Ni0.8Gd0.05Fe1.95O4,0,6,6,6,1,5,48.2,827,48.2,154,0,0,1,0.05
10.1016/j.materresbull.2020.110785,671,91,0,Zn0.2Ni0.8Gd0.05 Fe1.95O4,0,,Zn0.2Ni0.8Gd0.05Fe1.95O4,192,,535,Zn0.2Ni0.8Gd0.05Fe1.95O4,0,16,16,16,1,5,70.1,362,70.88,,0,0,1,0.05
10.1016/j.materresbull.2020.110785,672,91,0,Zn0.2Ni0.8Gd0.05 Fe1.95O4,0,,Zn0.2Ni0.8Gd0.05Fe1.95O4,211,,535,Zn0.2Ni0.8Gd0.05Fe1.95O4,0,29,29,29,1,5,80.3,207,81.14,,0,0,1,0.05
10.1016/j.materresbull.2020.110785,673,91,0,Zn0.2Ni0.8Gd0.05 Fe1.95O4,0,,Zn0.2Ni0.8Gd0.05Fe1.95O4,134,,535,Zn0.2Ni0.8Gd0.05Fe1.95O4,0,6,6,6,1,300,11.9,11.4,11.7,0,1,0,1,0
10.1016/j.materresbull.2020.110785,674,91,0,Zn0.2Ni0.8Gd0.05 Fe1.95O4,0,,Zn0.2Ni0.8Gd0.05Fe1.95O4,172,,535,Zn0.2Ni0.8Gd0.05Fe1.95O4,0,16,16,16,1,300,27.4,60.1,27.2,0,1,0,1,0
10.1016/j.materresbull.2020.110785,675,91,0,Zn0.2Ni0.8Gd0.05 Fe1.95O4,0,,Zn0.2Ni0.8Gd0.05Fe1.95O4,172,,535,Zn0.2Ni0.8Gd0.05Fe1.95O4,0,29,29,29,1,300,40.8,124,40.5,0,1,0,1,0
10.1088/2053-1591/ab65e4,676,225,221,Ni,LaFeO3,80,Ni-LaFeO3,,740,627,Ni,LaFeO3,35,35,35,1,300,0.63,2717.175,0.027,0,1,0,1,0
10.1088/2053-1591/ab65e4,677,225,221,Ni,LaFeO3,80,Ni-LaFeO3,,740,627,Ni,LaFeO3,35,35,35,1,300,0.75,8330.63,0.097,0,1,0,1,0
10.1088/2053-1591/ab65e4,678,225,221,Ni,LaFeO3,80,Ni-LaFeO3,,740,627,Ni,LaFeO3,35,35,35,1,300,0.915,1589.43,0.037,0,1,0,1,0
10.1088/2053-1591/ab65e4,679,225,221,Ni,LaFeO3,80,Ni-LaFeO3,,740,627,Ni,LaFeO3,35,35,35,1,300,0.607,385.34,0.011,0,1,0,1,0
10.1088/2053-1591/ab65e4,680,225,221,Ni,LaFeO3,80,Ni-LaFeO3,,740,627,Ni,LaFeO3,30,30,30,1,5,0.648,874.27,0.01,1630.76,0,0.021,1,0.5
10.1088/2053-1591/ab65e4,681,225,221,Ni,LaFeO3,80,Ni-LaFeO3,,740,627,Ni,LaFeO3,30,30,30,1,5,0.86,3039.125,0.067,2438.581,0,0.057,1,0.5
10.1088/2053-1591/ab65e4,682,225,221,Ni,LaFeO3,80,Ni-LaFeO3,,740,627,Ni,LaFeO3,30,30,30,1,5,0.846,2726,0.0415,5647.75,0,0.0895,1,0.5
10.1088/2053-1591/ab65e4,683,225,221,Ni,LaFeO3,80,Ni-LaFeO3,,740,627,Ni,LaFeO3,30,30,30,1,5,0.846,326.075,0.01,1212.995,0,0.044,1,0.5
10.1063/1.5135586,684,62,46,BiFe0.5Sc0.5O3,BiFe0.5Sc0.5O3,20,BiFe0.5Sc0.5O3,150,220,830,BiFe0.5Sc0.5O3,0,18,18,18,2,5,0.626,2660.77,0.0055,0,1,0.003,1,0.1
10.1063/1.5135586,685,62,46,BiFe0.5Sc0.5O3,BiFe0.5Sc0.5O3,20,BiFe0.5Sc0.5O3,150,220,830,BiFe0.5Sc0.5O3,0,18,18,18,2,50,0.368,2662.31,0.0065,648.446,0,0.0059,1,2
10.1063/1.5135586,686,62,46,BiFe0.5Sc0.5O3,BiFe0.5Sc0.5O3,20,BiFe0.5Sc0.5O3,150,220,830,BiFe0.5Sc0.5O3,0,18,18,18,2,100,0.335,2227.481,0.006,261.949,0,,1,2
10.1063/1.5135586,687,62,46,BiFe0.5Sc0.5O3,BiFe0.5Sc0.5O3,20,BiFe0.5Sc0.5O3,150,220,830,BiFe0.5Sc0.5O3,0,18,18,18,2,150,0.321,1590.775,0.007,97.394,0,0.0045,1,2
10.1063/1.5135586,688,62,46,BiFe0.5Sc0.5O3,BiFe0.5Sc0.5O3,20,BiFe0.5Sc0.5O3,150,220,830,BiFe0.5Sc0.5O3,0,18,18,18,2,175,0.268,1200.862,0.005,24.949,1,,1,2
10.1063/1.5135586,689,62,46,BiFe0.5Sc0.5O3,BiFe0.5Sc0.5O3,20,BiFe0.5Sc0.5O3,150,220,830,BiFe0.5Sc0.5O3,0,18,18,18,2,200,0.23,1136.268,0.004,30.557,0,0.0035,1,2
10.1063/1.5135586,690,62,46,BiFe0.5Sc0.5O3,BiFe0.5Sc0.5O3,20,BiFe0.5Sc0.5O3,150,220,830,BiFe0.5Sc0.5O3,0,18,18,18,2,250,0.193,524,0.001,176,1,,1,2
10.1016/j.jallcom.2020.156344,691,227,0,Fe3O4,0,10,Fe3O4,118,858,838,Fe3O4,0,11.22,11.22,11.22,3,5,72.42,252.105,17.76,32.99,0,,,1
10.1016/j.jallcom.2020.156344,692,227,0,Fe3O4,0,10,Fe3O4,118,858,838,Fe3O4,0,11.22,11.22,11.22,3,10,72.41,221.92,16.79,16.26,0,,,1
10.1016/j.jallcom.2020.156344,693,227,0,Fe3O4,0,10,Fe3O4,118,858,838,Fe3O4,0,11.22,11.22,11.22,3,50,72.06,133.38,10.02,23.38,0,,,1
10.1016/j.jallcom.2020.156344,694,227,0,Fe3O4,0,10,Fe3O4,118,858,838,Fe3O4,0,11.22,11.22,11.22,3,100,71.56,80.125,5.83,1.11,0,,,1
10.1016/j.jallcom.2020.156344,695,227,0,Fe3O4,0,10,Fe3O4,118,858,838,Fe3O4,0,11.22,11.22,11.22,3,150,70.52,37.24,3.26,3.6,0,,,1
10.1016/j.jallcom.2020.156344,696,227,0,Fe3O4,0,10,Fe3O4,118,858,838,Fe3O4,0,11.22,11.22,11.22,3,200,68.77,23.6815,1.7,10.663,1,,,1
10.1016/j.jallcom.2020.156344,697,227,0,Fe3O4,0,10,Fe3O4,118,858,838,Fe3O4,0,11.22,11.22,11.22,3,300,63.51,0.6,0.061,0.48,0,,,1
10.1007/s10904-020-01445-5,698,225,154,Ni,SiO2,20,Ni-SiO2,,,627,Ni,SG,80,80,80,1,,26.353,51.5,1.27,0.153,1,0,1,2
10.1007/s10904-020-01445-5,699,225,154,Ni,SiO2,20,Ni-SiO2,,,627,Ni,SG,80,80,80,1,,0.17,62,0.0074,28.751,0,0,1,2
10.1007/s10904-020-01445-5,700,225,154,Ni,SiO2,20,Ni-SiO2,,,627,Ni,SG,80,80,80,1,,0.31,66,0.014,21.156,0,0,1,2
10.1007/s10904-020-01445-5,701,225,154,Ni,SiO2,20,Ni-SiO2,,,627,Ni,SG,80,80,80,1,,0.91,62.5,0.039,8.078,0,0,1,2
10.1063/5.0016859,702,225,225,Ni,NiO,,Ni-NiO,350,796,720,Ni,NiO,20,20,20,3,5,4.326,252,0.624,131.724,0,0.035,1,0
10.1063/5.0016859,703,225,225,Ni,NiO,,Ni-NiO,350,796,720,Ni,NiO,20,20,20,3,150,3.265,377,0.6935,258.139,0,0.1045,1,2
10.1038/s41598-020-74188-5,704,227,167,Fe3O4,Fe2O3,30,Fe3O4-Fe2O3,130,950,850,Fe3O4,Fe2O3,10,10,10,1,5,26.707,1099.138,11.11,312.574,0,4.814,1,0.005
10.1038/s41598-020-74188-5,705,227,167,Fe3O4,Fe2O3,30,Fe3O4-Fe2O3,135,950,850,Fe3O4,Fe2O3,10,10,10,1,40,31.138,517.2415,5.75,,0,1,1,0.005
10.1038/s41598-020-74188-5,706,227,167,Fe3O4,Fe2O3,30,Fe3O4-Fe2O3,145,950,850,Fe3O4,Fe2O3,57.8,57.8,57.8,1,5,33.757,988.9945,14.473,67.9945,0,5.112,1,0.005
10.1038/s41598-020-74188-5,707,227,167,Fe3O4,Fe2O3,30,Fe3O4-Fe2O3,165,950,850,Fe3O4,Fe2O3,57.8,57.8,57.8,1,40,34.6,580.39,7.875,,0,,1,0.005
10.1016/j.physb.2020.412084,708,62,206,SmMnO3,Mn2O3,4,SmMnO3-Mn2O3,150,90,45,SmMnO3,Mn2O3,30,30,30,3,20,37.426,3363.8,12.99,0,1,0,1,0
10.1016/j.physb.2020.412084,709,62,206,SmMnO3,Mn2O3,10,SmMnO3-Mn2O3,150,90,45,SmMnO3,Mn2O3,30,30,30,3,20,21.143,2318.5,9.743,45.87,0,0,1,0
10.1016/j.physb.2020.412084,710,62,206,SmMnO3,Mn2O3,30,SmMnO3-Mn2O3,150,90,45,SmMnO3,Mn2O3,30,30,30,3,20,10.89,818.148,4.1975,19.952,1,0,1,0
10.1016/j.physb.2020.412084,711,62,206,SmMnO3,Mn2O3,4,SmMnO3-Mn2O3,150,90,45,SmMnO3,Mn2O3,30,30,30,3,20,,,2.25,,0,5.75,,0.2
10.1016/j.physb.2020.412084,712,62,206,SmMnO3,Mn2O3,10,SmMnO3-Mn2O3,150,90,45,SmMnO3,Mn2O3,30,30,30,3,20,9,2211.13,5,1249.769,0,2.5,1,0.2
10.1016/j.physb.2020.412084,713,62,206,SmMnO3,Mn2O3,30,SmMnO3-Mn2O3,150,90,45,SmMnO3,Mn2O3,30,30,30,3,20,18.83,3557,7.165,288.374,0,1.165,1,0.2
10.1016/j.physb.2020.412084,714,62,206,SmMnO3,Mn2O3,4,SmMnO3-Mn2O3,150,90,45,SmMnO3,Mn2O3,30,30,30,3,20,6.328,838.2735,1.9105,79.5885,0,4.7755,1,0.05
10.1016/j.physb.2020.412084,715,62,206,SmMnO3,Mn2O3,4,SmMnO3-Mn2O3,150,90,45,SmMnO3,Mn2O3,30,30,30,3,20,5.791,878.3785,2.0595,256.1785,0,5.4625,1,0.1
10.1016/j.physb.2020.412084,716,62,206,SmMnO3,Mn2O3,4,SmMnO3-Mn2O3,150,90,45,SmMnO3,Mn2O3,30,30,30,3,20,5.432,891.9945,2.0895,269.9945,0,5.4895,1,0.2
10.1016/j.physb.2020.412084,717,62,206,SmMnO3,Mn2O3,4,SmMnO3-Mn2O3,150,90,45,SmMnO3,Mn2O3,30,30,30,3,20,5.432,892,2.18,270,0,5.58,1,0.3
10.1016/j.physb.2020.412084,718,62,206,SmMnO3,Mn2O3,8,SmMnO3-Mn2O3,150,90,45,SmMnO3,Mn2O3,30,30,30,3,10,9.26,2838.8,4.265,225.8,0,3.681,1,0.05
10.1016/j.physb.2020.412084,719,62,206,SmMnO3,Mn2O3,8,SmMnO3-Mn2O3,150,90,45,SmMnO3,Mn2O3,30,30,30,3,10,8.85,2935.565,4.2655,322.565,0,4.598,1,0.1
10.1016/j.physb.2020.412084,720,62,206,SmMnO3,Mn2O3,8,SmMnO3-Mn2O3,150,90,45,SmMnO3,Mn2O3,30,30,30,3,10,8.686,2935.385,4.307,322.385,0,4.598,1,0.2
10.1016/j.physb.2020.412084,721,62,206,SmMnO3,Mn2O3,8,SmMnO3-Mn2O3,150,90,45,SmMnO3,Mn2O3,30,30,30,3,10,8.563,2919.26,4.3285,306.26,0,4.8275,1,0.3
10.1016/j.physb.2020.412084,722,62,206,SmMnO3,Mn2O3,8,SmMnO3-Mn2O3,150,90,45,SmMnO3,Mn2O3,30,30,30,3,10,8.359,2919.3,4.349,532.063,0,5.058,1,0.5
10.1016/j.physb.2020.412084,723,62,206,SmMnO3,Mn2O3,20,SmMnO3-Mn2O3,150,90,45,SmMnO3,Mn2O3,30,30,30,3,30,,1372.5,1.88,2614.3,0,4.778,1,0.3
10.1016/j.physb.2020.412084,724,62,206,SmMnO3,Mn2O3,20,SmMnO3-Mn2O3,150,90,45,SmMnO3,Mn2O3,30,30,30,3,30,,1372.5,3.2605,1372.5,0,3.2605,1,0.4
10.1016/j.physb.2020.412084,725,62,206,SmMnO3,Mn2O3,20,SmMnO3-Mn2O3,150,90,45,SmMnO3,Mn2O3,30,30,30,3,30,10.298,2190.471,4.963,556.519,0,1.412,1,0.8
10.1016/j.physb.2020.412084,726,62,206,SmMnO3,Mn2O3,20,SmMnO3-Mn2O3,150,90,45,SmMnO3,Mn2O3,30,30,30,3,30,11.312,2353.7985,5.217,589.1305,0,1.449,1,1
10.1016/j.physb.2020.412084,727,62,206,SmMnO3,Mn2O3,20,SmMnO3-Mn2O3,150,90,45,SmMnO3,Mn2O3,30,30,30,3,30,15.077,2550.85,5.399,328.675,0,0.979,1,2
10.1016/j.physb.2020.412084,728,62,206,SmMnO3,Mn2O3,20,SmMnO3-Mn2O3,150,90,45,SmMnO3,Mn2O3,30,30,30,3,40,13.72,900.1575,4.124,66.858,0,0.534,1,0.3
10.1016/j.physb.2020.412084,729,62,206,SmMnO3,Mn2O3,20,SmMnO3-Mn2O3,150,90,45,SmMnO3,Mn2O3,30,30,30,3,40,13.72,1008.733,4.3375,175.433,0,0.7465,1,2
10.1016/j.matchar.2020.110203,730,227,0,NiEr0.06Fe0.14O4,0,35,NiEr0.06Fe0.14O4,188,84,,NiEr0.06Fe0.14O4,0,19.4,19.4,19.4,1,5,44.2,886,,117,0,0,1,0.02
10.1016/j.matchar.2020.110203,731,227,0,NiEr0.12Fe0.08O4,0,35,NiEr0.12Fe0.08O4,162,84,,NiEr0.12Fe0.08O4,0,19.4,19.4,19.4,1,5,43.8,1218,,167,0,0,1,0.02
10.1016/j.matchar.2020.110203,732,227,0,NiEr0.18Fe0.02O4,0,35,NiEr0.18Fe0.02O4,135,84,,NiEr0.18Fe0.02O4,0,19.4,19.4,19.4,1,5,41.2,1377,,172,0,0,1,0.02
10.1016/j.jallcom.2020.153672,733,225,227,NiO,NiFe2O4,10,NiO-NiFe2O4,296,796,850,NiO,NiFe2O4,82.5,82.5,82.5,3,2,2.9,1832.68,1.675,1387.54,0,0.999,1,
10.1016/j.jallcom.2020.153672,734,225,227,NiO,NiFe2O4,50,NiO-NiFe2O4,296,796,850,NiO,NiFe2O4,82.5,82.5,82.5,3,2,8.3,1294.872,1.667,13.028,1,0.137,1,0.01
10.1016/j.jallcom.2020.153672,735,225,227,NiO,NiFe2O4,50,NiO-NiFe2O4,296,796,850,NiO,NiFe2O4,82.5,82.5,82.5,3,2,8.3,1461.595,1.8625,794.928,0,0.3325,1,0.1
10.1016/j.jallcom.2020.153672,736,225,227,NiO,NiFe2O4,,NiO-NiFe2O4,296,796,850,NiO,NiFe2O4,82.5,82.5,82.5,3,300,,,0.46,,1,0,1,0
10.1016/j.jallcom.2020.153672,737,225,227,NiO,NiFe2O4,,NiO-NiFe2O4,296,796,850,NiO,NiFe2O4,82.5,82.5,82.5,3,100,,663.422,1.5055,81.257,0,0,1,0.1
10.1016/j.jallcom.2020.153672,738,225,227,NiO,NiFe2O4,,NiO-NiFe2O4,296,796,850,NiO,NiFe2O4,82.5,82.5,82.5,3,50,,1088.3345,2.1605,306.0945,0,0,1,0.1
10.1088/1361-6528/abac7a,739,55,0,BiFeO3,0,50,BiFeO3,35,643,1103,BiFeO3,0,9,9,9,1,5,9.656,657.542,3.1,316.989,0,0.748,1,0.1
10.1088/1361-6528/abac7a,740,55,0,BiFeO3,0,50,BiFeO3,35,643,1103,BiFeO3,0,10,10,10,1,5,7.487,523.2,1.879,84.611,0,0.345,1,0.1
10.1088/1361-6528/abac7a,741,55,0,BiFeO3,0,50,BiFeO3,35,643,1103,BiFeO3,0,17,17,17,1,5,4.37,381.864,1.0775,70.769,0,0.1985,1,0.1
10.1088/1361-6528/abac7a,742,55,0,BiFeO3,0,50,BiFeO3,35,643,1103,BiFeO3,0,10,10,10,1,2,10.07,794.665,3.39,155.665,0,0.596,1,0.1
10.1088/1361-6528/abac7a,743,55,0,BiFeO3,0,50,BiFeO3,35,643,1103,BiFeO3,0,10,10,10,1,5,9.754,688.265,3.15,114.745,0,0.35,1,0.1
10.1088/1361-6528/abac7a,744,55,0,BiFeO3,0,50,BiFeO3,35,643,1103,BiFeO3,0,10,10,10,1,10,9.438,589.847,2.417,106.431,0,0,1,0.1
10.1088/1361-6528/abac7a,745,55,0,BiFeO3,0,50,BiFeO3,35,643,1103,BiFeO3,0,10,10,10,1,17,9.158,499.745,2.375,16.745,0,0,1,0.1
10.1088/1361-6528/abac7a,746,55,0,BiFeO3,0,50,BiFeO3,35,643,1103,BiFeO3,0,10,10,10,1,27,8.912,372.75,1.885,44.65,0,0.273,1,0.1
10.1134/S1063783420020043,747,227,227,Fe3O4,CoFe2O4,60,Fe3O4-CoFe2O,220,,858,Fe3O4,CoFe2O4,5,5,5,1,4.2,51.65,13500,36.379,2324,0,0,1,0.1
10.1134/S1063783420020043,748,227,0,CoFe2O4,0,60,CoFe2O4,230,890,793,CoFe2O4,0,6,6,6,1,4.2,65.568,10800,34.158,1972,0,0,1,0.1
10.1021/acs.chemmater.0c03017,749,225,0,CoO,0,70,CoO,300,291,,CoO,0,50.4,50.4,50.4,3,325,0.1,103,,0,1,0,1,0
10.1021/acs.chemmater.0c03017,750,225,0,CoO,0,70,CoO,300,291,,CoO,0,50.4,50.4,50.4,3,10,0.4,139,,0,1,0,1,0
10.1021/acs.chemmater.0c03017,751,225,227,CoO,MnFe2O4,70,CoO-MnFe2O4,,325,573,CoO,MnFe2O4,41.9,41.9,41.9,3,325,30,105,1.85,0,1,0,1,0
10.1021/acs.chemmater.0c03017,752,225,227,CoO,MnFe2O4,70,CoO-MnFe2O4,,325,573,CoO,MnFe2O4,41.9,41.9,41.9,3,10,35,126,2.337,0,1,0.595,1,0
10.1021/acs.chemmater.0c03017,753,225,227,CoO,CoFe2O4,70,CoO-CoFe2O4,388,293,860,CoO,CoFe2O4,37.3,37.3,37.3,3,325,74,101,3.2,0,1,0.3,1,0
10.1021/acs.chemmater.0c03017,754,225,227,CoO,CoFe2O4,70,CoO-CoFe2O4,388,293,860,CoO,CoFe2O4,37.3,37.3,37.3,3,10,78,228,4.836,0,1,0.052,1,0
10.1021/acs.chemmater.0c03017,755,225,0,CoO,0,70,CoO,,293,,CoO,0,50.4,50.4,50.4,3,10,0.4,169,,249,0,,,5
10.1021/acs.chemmater.0c03017,756,225,227,CoO,MnFe2O4,70,CoO-MnFe2O4,,325,573,CoO,MnFe2O4,41.9,41.9,41.9,3,10,35,197,,76,0,,,5
10.1021/acs.chemmater.0c03017,757,225,227,CoO,CoFe2O4,70,CoO-CoFe2O4,388,293,860,CoO,CoFe2O4,37.3,37.3,37.3,3,10,78,283,,55,0,,,5
10.1016/j.jmmm.2019.165713,758,194,225,NiO,0,50,NiO,154,796,85,NiO,0,10,10,10,1,5,0.96,1856.45,0.189,944.208,0,0.089,1,0.5
10.1016/j.jmmm.2019.165713,759,194,194,Gd,NiO,50,Gd-NiO,250,796,293,Gd,NiO,24.5,24.5,24.5,1,5,6.35,1047.21,0.219,877.4,0,0.219,1,0.5
10.1016/j.jallcom.2020.155050,760,225,0,NiO,0,,NiO,5,796,85,NiO,0,28.92,28.92,28.92,1,300,,525.72,0.00619,54.431,0,,,0.01