link,id,space_group_core,space_group_shell,core,shell,h_range_max_koe,chemical formula,Tb,TN,Tc,c1,c2,x,y,z,shape,temperature_k,sat_em_g,coer_oe,mr (emu/g),exc_bias_oe,exc_dir,ver_shift_emu_g,ver_s_dir,fc_field_t
10.1016/j.jmmm.2023.171412,923,227,167,Co2.25Fe0.75O,Fe2O3,40,Co2.25Fe0.75O-Fe2O3,,,1223,Co2.25Fe0.75O,Fe2O3,13.176,,,,5,0.3775,3691,0.0189,543,0,,,7
10.1016/j.jmmm.2023.171412,924,227,227,Co2.45Fe0.55O4,Co1.52Fe1.48O4,40,Co2.45Fe0.55O4-Co1.52Fe1.48O4,,,1223,Co2.45Fe0.55O4,Co1.52Fe1.48O4,24.82,,,,5,2.052,895,0.029,70.9,0,,,7
10.1016/j.jallcom.2015.05.276,925,227,227,Co0.96Fe0.04,Co1.59Fe0.41O4,70,Co0.96Fe0.04-Co1.59Fe0.41O4,317,291,1100,Co0.96Fe0.04,Co1.59Fe0.41O4,50,,,,5,22.57,10211,22.8585,140,0,0,0,7
10.1016/j.jallcom.2015.05.276,926,227,227,Co0.96Fe0.04,Co1.59Fe0.41O4,70,Co0.96Fe0.04-Co1.59Fe0.41O4,317,291,1100,Co0.96Fe0.04,Co1.59Fe0.41O4,50,,,,5,22.43,9289,21.434,0,1,0,0,0
10.1016/j.jallcom.2015.05.276,927,227,227,Co0.96Fe0.04,Co0.99Fe1.01O4,70,Co0.96Fe0.04-Co0.99Fe1.01O4,317,291,1100,Co0.96Fe0.04,Co0.99Fe1.01O4,50,,,,5,34.67,9279,25.1195,1028,0,1.7805,1,7
10.1016/j.jallcom.2015.05.276,928,227,227,Co0.96Fe0.04,Co0.99Fe1.01O4,70,Co0.96Fe0.04-Co0.99Fe1.01O4,317,291,1100,Co0.96Fe0.04,Co0.99Fe1.01O4,50,,,,5,34.32,9028,25,0,1,0,0,0
10.1016/j.jallcom.2015.05.276,929,227,227,Co0.76Fe0.24,Co1.3Fe0.7O4,70,Co0.76Fe0.24-Co1.3Fe0.7O4,300,291,1100,Co0.76Fe0.24,Co1.3Fe0.7O4,52,,,,5,32.87,7278,24.762,420,0,1.904,1,7
10.1016/j.jallcom.2015.05.276,930,227,227,Co0.76Fe0.24,Co1.3Fe0.7O4,70,Co0.76Fe0.24-Co1.3Fe0.7O4,300,291,1100,Co0.76Fe0.24,Co1.3Fe0.7O4,52,,,,5,33.01,7053,24.405,0,1,0,0,0
10.1016/j.jallcom.2015.05.276,931,,,CoO,Co2.25Fe0.75O4,70,CoO-Co2.25Fe0.75O4,,293,750,CoO,Co2.25Fe0.75O4,52,,,,5,33.47,5933,25.95,140,0,0.474,1,7
10.1016/j.jallcom.2015.05.276,932,,,CoO,Co2.25Fe0.75O4,70,CoO-Co2.25Fe0.75O4,,293,750,CoO,Co2.25Fe0.75O4,52,,,,5,32.76,5858,24.881,0,1,0,0,0
10.1016/j.jallcom.2015.05.276,933,227,227,Co0.77Fe0.23,Co1.3Fe0.7O4,70,Co0.77Fe0.23-Co1.3Fe0.7O4,300,291,1100,Co0.77Fe0.23,Co1.3Fe0.7O4,52,,,,5,32.91,5163,23.336,68,0,0.954,1,7
10.1016/j.jallcom.2015.05.276,934,227,227,Co0.77Fe0.23,Co1.3Fe0.7O4,70,Co0.77Fe0.23-Co1.3Fe0.7O4,300,291,1100,Co0.77Fe0.23,Co1.3Fe0.7O4,52,,,,5,32.9,5099,24.1695,0,1,0,0,0
10.1016/j.jallcom.2015.05.276,935,227,227,Co0.96Fe0.04,Co1.59Fe0.41O4,40,Co0.96Fe0.04-Co1.59Fe0.41O4,317,291,1100,Co0.96Fe0.04,Co1.59Fe0.41O4,50,,,,100,16.77,6733,10.818,120.479,0,0.137,1,7
10.1016/j.jallcom.2015.05.276,936,227,227,Co0.96Fe0.04,Co1.59Fe0.41O4,40,Co0.96Fe0.04-Co1.59Fe0.41O4,317,291,1100,Co0.96Fe0.04,Co1.59Fe0.41O4,50,,,,50,19.7,8727,0.726,17.453,0,0.726,1,7
10.1016/j.jallcom.2015.05.276,937,227,227,Co0.96Fe0.04,Co1.59Fe0.41O4,40,Co0.96Fe0.04-Co1.59Fe0.41O4,317,291,1100,Co0.96Fe0.04,Co1.59Fe0.41O4,50,,,,5,22.57,10211,,,,,,7
10.1016/j.jallcom.2015.05.276,938,227,227,Co0.96Fe0.04,Co0.99Fe1.01O4,30,Co0.96Fe0.04-Co0.99Fe1.01O4,317,291,1100,Co0.96Fe0.04,Co0.99Fe1.01O4,50,,,,250,27.16,1782,14.6925,64.1,0,0.9275,1,7
10.1016/j.jallcom.2015.05.276,939,227,227,Co0.96Fe0.04,Co0.99Fe1.01O4,30,Co0.96Fe0.04-Co0.99Fe1.01O4,317,291,1100,Co0.96Fe0.04,Co0.99Fe1.01O4,50,,,,200,28.33,2867,16.412,238.804,0,1.456,1,7
10.1016/j.jallcom.2015.05.276,940,227,227,Co0.96Fe0.04,Co0.99Fe1.01O4,30,Co0.96Fe0.04-Co0.99Fe1.01O4,317,291,1100,Co0.96Fe0.04,Co0.99Fe1.01O4,50,,,,150,29.01,4455,18.662,414.609,0,1.322,1,7
10.1016/j.jallcom.2015.05.276,941,227,227,Co0.96Fe0.04,Co0.99Fe1.01O4,30,Co0.96Fe0.04-Co0.99Fe1.01O4,317,291,1100,Co0.96Fe0.04,Co0.99Fe1.01O4,50,,,,100,29.68,6505,21.309,696.718,0,1.985,1,7
10.1016/j.jallcom.2015.05.276,942,227,227,Co0.96Fe0.04,Co0.99Fe1.01O4,30,Co0.96Fe0.04-Co0.99Fe1.01O4,317,291,1100,Co0.96Fe0.04,Co0.99Fe1.01O4,50,,,,50,29.98,8406,23.7985,897.531,0,1.0755,1,7
10.1016/j.jallcom.2015.05.276,943,227,227,Co0.96Fe0.04,Co0.99Fe1.01O4,30,Co0.96Fe0.04-Co0.99Fe1.01O4,317,291,1100,Co0.96Fe0.04,Co0.99Fe1.01O4,50,,,,5,34.67,9279,,,0,,,7
10.1016/j.jmmm.2016.12.018,944,225,14,Ca,La2CoMnO6,75,Ca-La2CoMnO6,,,430,Ca,La2CoMnO6,,,,,5,,3904.9,2.375,514.248,0,0.307,1,0
10.1016/j.jmmm.2016.12.018,945,225,14,Ca,La2CoMnO6,75,Ca-La2CoMnO6,,,430,Ca,La2CoMnO6,,,,,5,,3790.433,2.2275,4704.708,0,3.0455,1,0.5
10.1016/j.jmmm.2016.12.018,946,225,14,Ca,La2CoMnO6,75,Ca-La2CoMnO6,,,430,Ca,La2CoMnO6,,,,,5,,3695.2455,2.2615,5142.8485,0,3.4665,1,1
10.1016/j.jmmm.2016.12.018,947,225,14,Ca,La2CoMnO6,75,Ca-La2CoMnO6,,,430,Ca,La2CoMnO6,,,,,5,,4114.239,2.693,5676.126,0,3.988,1,3
10.1016/j.jmmm.2016.12.018,948,225,14,Ca,La2CoMnO6,75,Ca-La2CoMnO6,,,430,Ca,La2CoMnO6,,,,,5,,4247.571,2.841,5618.984,0,4.114,1,5
10.1016/j.jmmm.2016.12.018,949,225,14,Ca,La2CoMnO6,75,Ca-La2CoMnO6,,,430,Ca,La2CoMnO6,,,,,5,,4304.713,2.943,5561.842,0,4.011,1,7
10.1063/1.4867523,950,62,161,Sm0.5Ca0.5MnO3,CO,70,Sm0.5Ca0.5MnO3-CO,275,270,,Sm0.5Ca0.5MnO3,CO,150,150,150,1,5,,2552.3,0.5185,1205,0,0.3195,1,7
10.1063/1.4867523,951,62,161,Sm0.5Ca0.5MnO3,CO,70,Sm0.5Ca0.5MnO3-CO,275,270,,Sm0.5Ca0.5MnO3,CO,17,17,17,1,5,,1756.1,1.447,790,0,0.699,1,7
10.1063/1.4867523,952,62,161,Sm0.5Ca0.5MnO3,CO,70,Sm0.5Ca0.5MnO3-CO,275,270,,Sm0.5Ca0.5MnO3,CO,1000,1000,1000,1,5,,3112.5,0.935,1122,0,0.557,1,7
10.1063/1.4867523,953,62,161,Sm0.5Ca0.5MnO3,CO,70,Sm0.5Ca0.5MnO3-CO,275,270,,Sm0.5Ca0.5MnO3,CO,17,17,17,1,5,,1123.21,0.73,0,1,0,0,0
10.1063/1.4867523,954,62,161,Sm0.5Ca0.5MnO3,CO,70,Sm0.5Ca0.5MnO3-CO,275,270,,Sm0.5Ca0.5MnO3,CO,17,17,17,1,5,,1270.137,0.9015,794.114,0,0.5575,1,1
10.1063/1.4867523,955,62,161,Sm0.5Ca0.5MnO3,CO,70,Sm0.5Ca0.5MnO3-CO,275,270,,Sm0.5Ca0.5MnO3,CO,17,17,17,1,5,,1374.4,1.172,834.122,0,0.721,1,3
10.1063/1.4867523,956,62,161,Sm0.5Ca0.5MnO3,CO,70,Sm0.5Ca0.5MnO3-CO,275,270,,Sm0.5Ca0.5MnO3,CO,17,17,17,1,5,,1402.836,1.3605,777.251,0,0.7625,1,5
10.1063/1.4867523,957,62,161,Sm0.5Ca0.5MnO3,CO,70,Sm0.5Ca0.5MnO3-CO,275,270,,Sm0.5Ca0.5MnO3,CO,150,150,150,1,5,,1628.05,0.4625,0,1,0,0,0
10.1063/1.4867523,958,62,161,Sm0.5Ca0.5MnO3,CO,70,Sm0.5Ca0.5MnO3-CO,275,270,,Sm0.5Ca0.5MnO3,CO,150,150,150,1,5,,1727.2185,0.483,520.6185,0,0.137,1,0.5
10.1063/1.4867523,959,62,161,Sm0.5Ca0.5MnO3,CO,70,Sm0.5Ca0.5MnO3-CO,275,270,,Sm0.5Ca0.5MnO3,CO,150,150,150,1,5,,1739.615,0.502,731.249,0,0.213,1,1
10.1063/1.4867523,960,62,161,Sm0.5Ca0.5MnO3,CO,70,Sm0.5Ca0.5MnO3-CO,275,270,,Sm0.5Ca0.5MnO3,CO,150,150,150,1,5,,1673.497,0.56,731.249,0,0.372,1,3
10.1063/1.4867523,961,62,161,Sm0.5Ca0.5MnO3,CO,70,Sm0.5Ca0.5MnO3-CO,275,270,,Sm0.5Ca0.5MnO3,CO,150,150,150,1,5,,1674.5,0.613,1162.12,0,0.425,1,5
10.1063/1.4867523,962,62,161,Sm0.5Ca0.5MnO3,CO,70,Sm0.5Ca0.5MnO3-CO,275,270,,Sm0.5Ca0.5MnO3,CO,1000,1000,1000,1,5,,3078.165,0.626,0,1,0,0,0
10.1063/1.4867523,963,62,161,Sm0.5Ca0.5MnO3,CO,70,Sm0.5Ca0.5MnO3-CO,275,270,,Sm0.5Ca0.5MnO3,CO,1000,1000,1000,1,5,,3099.49,0.638,241.702,0,0.07,1,0.5
10.1063/1.4867523,964,62,161,Sm0.5Ca0.5MnO3,CO,70,Sm0.5Ca0.5MnO3-CO,275,270,,Sm0.5Ca0.5MnO3,CO,1000,1000,1000,1,5,,3049.729,0.638,405.171,0,0.113,1,1
10.1063/1.4867523,965,62,161,Sm0.5Ca0.5MnO3,CO,70,Sm0.5Ca0.5MnO3-CO,275,270,,Sm0.5Ca0.5MnO3,CO,1000,1000,1000,1,5,,2950.1,0.6535,831.64,0,0.2295,1,3
10.1063/1.4867523,966,62,161,Sm0.5Ca0.5MnO3,CO,70,Sm0.5Ca0.5MnO3-CO,275,270,,Sm0.5Ca0.5MnO3,CO,1000,1000,1000,1,5,,2865,0.669,1088,0,0.303,1,5
10.1039/D3NA01108A,967,227,,Fe3O4,CoO,70,Fe3O4-CoO,93,293,,Fe3O4,CoO,10.1,10.1,10.1,1,10,69,400,,0,1,0,0,7
10.1039/D3NA01108A,968,227,,Fe3O4,CoO,70,Fe3O4-CoO,266,293,,Fe3O4,CoO,16,16,16,1,10,68,19800,41.67,5300,0,11.67,1,7
10.1039/D3NA01108A,969,227,,Fe3O4,CoO,70,Fe3O4-CoO,315,293,,Fe3O4,CoO,14.8,14.8,14.8,1,10,68.8,18500,50.5,2800,0,4.5,1,7
10.1039/D3NA01108A,970,227,,Fe3O4,CoO,70,Fe3O4-CoO,343,293,,Fe3O4,CoO,15.7,15.7,15.7,1,10,68.9,17900,50,900,0,3.67,1,7
10.1039/D3NA01108A,971,227,,Fe3O4,CoO,70,Fe3O4-CoO,343,293,,Fe3O4,CoO,16.4,16.4,16.4,1,10,68.8,15800,51.5,500,0,1.9,1,7
10.1039/D3NA01108A,972,227,,Fe3O4,CoO,70,Fe3O4-CoO,266,293,,Fe3O4,CoO,10.1,10.1,10.1,1,10,58.67,400,,,1,,0,0
10.1039/D3NA01108A,973,227,,Fe3O4,CoO,70,Fe3O4-CoO,266,293,,Fe3O4,CoO,16,16,16,1,10,39.668,16400,15.5,2002,0,0.83,1,0
10.1039/D3NA01108A,974,227,,Fe3O4,CoO,70,Fe3O4-CoO,266,293,,Fe3O4,CoO,14.8,14.8,14.8,1,10,50.335,17500,37.5,100,0,0.832,1,0
10.1039/D3NA01108A,975,227,,Fe3O4,CoO,70,Fe3O4-CoO,266,293,,Fe3O4,CoO,15.7,15.7,15.7,1,10,54.667,17200,42.5,926,0,1.5,1,0
10.1039/D3NA01108A,976,227,,Fe3O4,CoO,70,Fe3O4-CoO,266,293,,Fe3O4,CoO,16.4,16.4,16.4,1,10,70.67,15000,46.67,602,0,0.67,1,0
10.1021/nl2034514,977,225,227,FeO,Fe3O4,20,FeO-Fe3O4,266,200,,FeO,Fe3O4,32,32,32,3,2,24.144,790.261,2.65,48.339,0,0.22,1,0
10.1021/nl2034514,978,225,227,FeO,Fe3O4,20,FeO-Fe3O4,266,200,,FeO,Fe3O4,32,32,32,1,2,29.41,790,4.275,49,0,2.035,1,0
10.1021/nl2034514,979,225,227,FeO,Fe3O4,20,FeO-Fe3O4,266,200,,FeO,Fe3O4,32,32,32,5,2,48.16,605,7.811,8,0,1.587,1,0
10.1021/nl2034514,980,225,227,FeO,Fe3O4,20,FeO-Fe3O4,266,200,,FeO,Fe3O4,32,32,32,1,2,29.5,887.25,4.1,42.75,1,0.323,1,0
10.1021/nl2034514,981,225,227,FeO,Fe3O4,20,FeO-Fe3O4,266,200,,FeO,Fe3O4,32,32,32,1,2,32,2334.3,9,2334.3,0,9,1,1
10.1021/nl2034514,982,225,227,FeO,Fe3O4,20,FeO-Fe3O4,266,200,,FeO,Fe3O4,32,32,32,3,2,27.42,690.8,2.532,20.822,1,0.65,1,0
10.1021/nl2034514,983,225,227,FeO,Fe3O4,20,FeO-Fe3O4,266,200,,FeO,Fe3O4,32,32,32,3,2,25.07,2368.5,6.7,1499.18,0,3.759,1,1
10.1021/nl2034514,984,225,227,FeO,Fe3O4,20,FeO-Fe3O4,266,200,,FeO,Fe3O4,32,32,32,5,2,48.65,594.963,8.066,7.963,0,1.482,1,0
10.1021/nl2034514,985,225,227,FeO,Fe3O4,20,FeO-Fe3O4,266,200,,FeO,Fe3O4,32,32,32,5,2,50.5,595,12.9225,310.088,0,6.8295,1,1
10.48550/arXiv.1207.3350,986,87,0,MnO2,0,40,MnO2,42.14,40,140,MnO2,0,587.27,86.3,0,6,5,,211.7645,0.037,2423.5295,0,0.389,1,0.1
10.48550/arXiv.1207.3350,987,87,0,MnO2,0,40,MnO2,42.14,40,140,MnO2,0,587.27,86.3,0,6,5,,,,,0,,1,0.5
10.48550/arXiv.1207.3350,988,87,0,MnO2,0,40,MnO2,42.14,40,140,MnO2,0,587.27,86.3,0,6,5,0.53,294.12,0.044,2858.934,0,0.451,1,1
10.48550/arXiv.1207.3350,989,87,0,MnO2,0,40,MnO2,42.14,40,140,MnO2,0,587.27,86.3,0,6,5,3.3,2000.135,0.324,1340.891,0,0.213,1,2
10.48550/arXiv.1207.3350,990,87,0,MnO2,0,40,MnO2,42.14,40,140,MnO2,0,587.27,86.3,0,6,5,4.353,2941.27,0.4745,400.094,0,0.0575,1,3
10.48550/arXiv.1207.3350,991,87,0,MnO2,0,40,MnO2,42.14,40,140,MnO2,0,587.27,86.3,0,6,5,6.77,3364.891,0.537,70.437,0,0.019,1,5
10.48550/arXiv.1207.3350,992,87,0,MnO2,0,20,MnO2,42.14,40,140,MnO2,0,587.27,86.3,0,6,5,3.475,1986.65,0.329,1291.25,0,0.224,1,2
10.48550/arXiv.1207.3350,993,87,0,MnO2,0,20,MnO2,42.14,40,140,MnO2,0,587.27,86.3,0,6,10,3.1,2466.65,0.3815,146.65,0,0.0225,1,2
10.48550/arXiv.1207.3350,994,87,0,MnO2,0,20,MnO2,42.14,40,140,MnO2,0,587.27,86.3,0,6,20,2.658,1893.5,0.2985,25.1,0,0.0005,0,2
10.48550/arXiv.1207.3350,995,87,0,MnO2,0,20,MnO2,42.14,40,140,MnO2,0,587.27,86.3,0,6,30,2.171,960.1,0.123,53.9,1,0.017,0,2
10.1088/0957-4484/24/15/155703,996,141,166,Mn3O4,MnO,50,Mn3O4-MnO,95,120,,Mn3O4,MnO,50,50,50,6,5,5.3,5241,0.073,4099.9,0,0,0,1
10.1088/0957-4484/24/15/155703,997,141,166,Mn3O4,MnO,50,Mn3O4-MnO,95,120,,Mn3O4,MnO,50,50,50,6,15,5.6,1804,0.2445,1175.27,0,0.0755,1,1
10.1088/0957-4484/24/15/155703,998,141,166,Mn3O4,MnO,50,Mn3O4-MnO,95,120,,Mn3O4,MnO,50,50,50,6,30,5.7,500,0.51,178.46,0,0.277,1,1
10.1088/0953-8984/22/2/026004,999,221,225,FeCo,MgO,20,FeCo-MgO,,,950,FeCo,MgO,98,98,98,1,10,230.231,717.3,28.43,44.2,0,2.07,1,2
10.1088/0953-8984/22/2/026004,1000,221,225,FeCo,MgO,20,FeCo-MgO,,,950,FeCo,MgO,98,98,98,1,10,176.74,571.14,8.5,125,0,0,0,2
10.1088/0953-8984/22/2/026004,1001,221,225,FeCo,MgO,20,FeCo-MgO,,,950,FeCo,MgO,98,98,98,1,10,230.5,175,28.4,11,1,2,0,2
10.1088/0953-8984/22/2/026004,1002,225,,MgO,MgCo,10,MgO-MgCo,,,1388,MgO,MgCo,98,98,98,1,10,175.15,1279,71.425,386,0,18.63,1,2
10.1016/j.jmmm.2015.07.060,1003,194,225,Ni,NiO,5,Ni-NiO,60,796,720,Ni,NiO,9,9,9,1,80,5.7,2185.68,0.307,699.84,0,0.1,1,8
10.1016/j.jmmm.2015.07.060,1004,194,225,Ni,NiO,5,Ni-NiO,75,796,,Ni,NiO,11,11,11,1,80,31.85,654.615,7.414,220.205,0,2.241,1,8
10.1016/j.ssc.2016.01.006,1005,194,225,Ni,NiO,2,Ni–NiO,60,796,720,Ni,NiO,5,5,5,1,2,141.5,301.6925,44,27.4005,0,5,1,0.1
10.1016/j.ssc.2016.01.006,1006,194,225,Ni,NiO,2,Ni–NiO,60,796,720,Ni,NiO,5,5,5,1,2,138,310.131,43.25,158.175,0,21.727,1,2
10.1016/j.ssc.2016.01.006,1007,194,225,Ni,NiO,2,Ni–NiO,60,796,720,Ni,NiO,5,5,5,1,2,130,314.35,34.25,390.766,0,44.762,1,5
10.1016/j.ssc.2016.01.006,1008,194,225,Ni,NiO,3,Ni–NiO,60,796,720,Ni,NiO,5,5,5,1,2,11.563,490.235,6.72,37.651,0,0.26,1,0.1
10.1016/j.ssc.2016.01.006,1009,194,225,Ni,NiO,3,Ni–NiO,60,796,720,Ni,NiO,10.1,10.1,10.1,1,2,19.792,477.665,8.959,133.685,0,2.709,1,0.1
10.1016/j.ssc.2016.01.006,1010,194,225,Ni,NiO,3,Ni–NiO,60,796,720,Ni,NiO,16.8,16.8,16.8,1,2,25.834,494.425,14.5,201.014,0,3.875,1,0.1
10.1016/j.jallcom.2016.05.191,1011,221,225,Ni3Al,NiO,3,Ni3Al-NiO,,796,200,Ni3Al,NiO,6,52,0,6,12,8.93,31,0.8,31,1,0.73,0,0
10.1016/j.jallcom.2016.05.191,1012,221,225,Ni3Al,NiO,3,Ni3Al-NiO,,796,200,Ni3Al,NiO,6,52,0,6,12,8.786,32,0.8135,32,0,0.8135,1,0.2
10.1021/acs.chemmater.6b00623,1013,,,Co0.3Fe0.7O,Co0.6Fe2.4O4,120,Co0.3Fe0.7O-Co0.6Fe2.4O4 ,115,,1073,Co0.3Fe0.7O,Co0.6Fe2.4O4,6,6,6,1,10,,13500,,0,1,0,0,0
10.1021/acs.chemmater.6b00623,1014,,,Co0.3Fe0.7O,Co0.6Fe2.4O4,120,Co0.3Fe0.7O-Co0.6Fe2.4O4 ,179,223,,Co0.3Fe0.7O,Co0.6Fe2.4O4,9,9,9,1,10,,13700,,0,1,0,0,0
10.1021/acs.chemmater.6b00623,1015,,,Co0.3Fe0.7O,Co0.6Fe2.4O4,120,Co0.3Fe0.7O-Co0.6Fe2.4O4,300,217,,Co0.3Fe0.7O,Co0.6Fe2.4O4,15,15,15,1,10,,12400,,0,1,0,0,0
10.1021/acs.chemmater.6b00623,1016,,,Co0.3Fe0.7O,Co0.6Fe2.4O4,120,Co0.3Fe0.7O-Co0.6Fe2.4O4,380,227,,Co0.3Fe0.7O,Co0.6Fe2.4O4,18,18,18,1,10,,1600,,0,1,0,0,0
10.1021/acs.chemmater.6b00623,1017,,,Co0.3Fe0.7O,Co0.6Fe2.4O4,120,Co0.3Fe0.7O-Co0.6Fe2.4O4,115,,1073,Co0.3Fe0.7O,Co0.6Fe2.4O4,6,6,6,1,,,15000,,3200,0,,1,12
10.1021/acs.chemmater.6b00623,1018,,,Co0.3Fe0.7O,Co0.6Fe2.4O4,120,Co0.3Fe0.7O-Co0.6Fe2.4O4,179,223,,Co0.3Fe0.7O,Co0.6Fe2.4O4,9,9,9,1,,,19300,,8600,0,,1,12
10.1021/acs.chemmater.6b00623,1019,,,Co0.3Fe0.7O,Co0.6Fe2.4O4,120,Co0.3Fe0.7O-Co0.6Fe2.4O4,300,217,,Co0.3Fe0.7O,Co0.6Fe2.4O4,15,15,15,1,,,16200,,5500,0,,1,12
10.1021/acs.chemmater.6b00623,1020,,,Co0.3Fe0.7O,Co0.6Fe2.4O4,120,Co0.3Fe0.7O-Co0.6Fe2.4O4,380,227,,Co0.3Fe0.7O,Co0.6Fe2.4O4,18,18,18,1,,,16300,,5500,0,,1,12
10.1021/acs.jpcc.5b12332,1021,225,227,NiO,CoFe2O4,40,NiO-CoFe2O4,200,796,793,NiO,CoFe2O4,35,35,35,1,5,24.77,5087.35,13,969.35,0,5.8,1,0
10.1021/acs.jpcc.5b12332,1022,225,227,NiO,CoFe2O4,40,NiO-CoFe2O4,200,796,793,NiO,CoFe2O4,35,35,35,1,5,25.75,1820.15,8.665,178.96,0,3.445,1,2
10.1021/acs.jpcc.5b12332,1023,225,227,NiO,CoFe2O4,40,NiO-CoFe2O4,200,796,793,NiO,CoFe2O4,35,35,35,1,5,26,790.835,4.44,15.329,0,1.469,1,4
10.1021/acs.jpcc.5b12332,1024,225,227,NiO,CoFe2O4,40,NiO-CoFe2O4,200,796,793,NiO,CoFe2O4,35,35,35,1,5,39.143,10731.71,23.9,48.783,0,0,0,0
10.1021/acs.jpcc.5b12332,1025,225,227,NiO,CoFe2O4,40,NiO-CoFe2O4,200,796,793,NiO,CoFe2O4,35,35,35,1,5,46,10146.46,28.5,195.12,0,1.674,1,2
10.1021/acs.jpcc.5b12332,1026,225,227,NiO,CoFe2O4,40,NiO-CoFe2O4,200,796,793,NiO,CoFe2O4,35,35,35,1,5,46,10268.32,29.14,318.057,0,0.002,1,4
10.1557/adv.2016.324,1027,167,,Cr2O3,Mn0.30Cr1.7O3,5,Cr2O3-Mn0.30Cr1.7O3,,310,71,Cr2O3,Mn0.30Cr1.7O3,31.9,31.9,31.9,1,5,0.205,42,0.0095,294,0,0.0625,1,0.5
10.1557/adv.2016.324,1028,167,,Cr2O3,Mn0.30Cr1.7O3,5,Cr2O3-Mn0.30Cr1.7O3,,310,71,Cr2O3,Mn0.30Cr1.7O3,31.9,31.9,31.9,1,5,,,,0,1,0,1,2
10.1063/1.4947769,1029,225,225,NiO,Ni,,NiO-Ni,190,796,,NiO,Ni,10,10,10,1,5,,10131.746,,2237.119,0,,1,2
10.1063/1.4947769,1030,225,225,NiO,Ni,,NiO-Ni,190,796,,NiO,Ni,25,25,25,1,5,,5105.1925,,789.1415,0,,1,2
10.1063/1.4947769,1031,225,225,NiO,Ni,,NiO-Ni,190,796,,NiO,Ni,70,70,70,1,5,,658.41,,77.09,0,,1,2
10.1007/s10948-016-3521-3,1032,62,217,Fe0.95O3,Mn0.05,15,Fe0.95O3-Mn0.05,,525,,Fe0.95O3,Mn0.05,,,,,608,0.33,981.6,0.137,470,0,0,0,0
10.1007/s10948-016-3521-3,1033,62,217,Fe0.95O3,Mn0.05,15,Fe0.95O3-Mn0.05,,525,,Fe0.95O3,Mn0.05,,,,,608,0.3165,322,0.0925,0,1,0.0045,1,0.2
10.1007/s10948-016-3521-3,1034,62,217,Fe0.85O3,Mn0.15,15,"Fe0.85O3-Mn0.15
",,462,,Fe0.85O3,Mn0.15,,,,,573,0.325,2055.3,0.151,299.83,1,0,0,0
10.1007/s10948-016-3521-3,1035,62,217,Fe0.85O3,Mn0.15,15,"Fe0.85O3-Mn0.15
",,467,,Fe0.85O3,Mn0.15,,,,,573,0.239,445.81,0.04,137.555,1,0.005,1,0.2
10.1007/s10948-016-3521-3,1036,62,217,Fe0.75O3,Mn0.25,,Fe0.75O3-Mn0.25,,456,,Fe0.75O3,Mn0.25,,,,,453,,3228.7,0.1635,1028.7,0,0.0385,1,0.2
10.1007/s10948-016-3521-3,1037,62,217,Fe0.75O3,Mn0.25,,Fe0.75O3-Mn0.25,,456,,Fe0.75O3,Mn0.25,,,,,458,,2671.467,0.165,471.281,0,0.021,1,0.2
10.1007/s10948-016-3521-3,1038,62,217,Fe0.75O3,Mn0.25,,Fe0.75O3-Mn0.25,,456,,Fe0.75O3,Mn0.25,,,,,463,,2200,0.156,200,0,0.011,1,0.2
10.1007/s10948-016-3521-3,1039,62,217,Fe0.75O3,Mn0.25,,Fe0.75O3-Mn0.25,,456,,Fe0.75O3,Mn0.25,,,,,468,,1743.8,0.141,29.5,0,0.005,1,0.2
10.1007/s10948-016-3521-3,1040,62,217,Fe0.75O3,Mn0.25,,Fe0.75O3-Mn0.25,,456,,Fe0.75O3,Mn0.25,,,,,473,,1000,0.1135,0,0,0.005,0,0.2
10.1007/s10948-016-3521-3,1041,62,217,Fe0.75O3,Mn0.25,,Fe0.75O3-Mn0.25,,456,,Fe0.75O3,Mn0.25,,,,,478,,528.75,0.0645,13.75,1,0,0,0.2
10.1007/s10948-016-3521-3,1042,62,217,Fe0.7O3,Mn0.3,,Fe0.7O3-Mn0.3,,456,,Fe0.7O3,Mn0.3,,,,,413,,3880,0.147,1278.77,0,0.038,1,0.2
10.1007/s10948-016-3521-3,1043,62,217,Fe0.7O3,Mn0.3,,Fe0.7O3-Mn0.3,,456,,Fe0.7O3,Mn0.3,,,,,418,,3360,0.156,760,0,0.022,1,0.2
10.1007/s10948-016-3521-3,1044,62,217,Fe0.7O3,Mn0.3,,Fe0.7O3-Mn0.3,,456,,Fe0.7O3,Mn0.3,,,,,423,,2760.3,0.149,400.3,0,0.015,1,0.2
10.1007/s10948-016-3521-3,1045,62,217,Fe0.7O3,Mn0.3,,Fe0.7O3-Mn0.3,,456,,Fe0.7O3,Mn0.3,,,,,428,,2360,0.143,200,0,0.005,1,0.2
10.1007/s10948-016-3521-3,1046,62,217,Fe0.7O3,Mn0.3,,Fe0.7O3-Mn0.3,,456,,Fe0.7O3,Mn0.3,,,,,433,,1820,0.133,100,0,0.007,1,0.2
10.1007/s10948-016-3521-3,1047,62,217,Fe0.7O3,Mn0.3,,Fe0.7O3-Mn0.3,,456,,Fe0.7O3,Mn0.3,,,,,438,,1360,0.117,40,0,0.002,1,0.2
10.1016/j.jallcom.2016.02.250,1048,141,167,CuCr2O4,Cr2O3,50,CuCr2O4-Cr2O3,,310,130,CuCr2O4,Cr2O3,150,150,150,1,10,4.45,5296.465,0.825,349.908,0,0,0,0
10.1016/j.jallcom.2016.02.250,1049,141,167,CuCr2O4,Cr2O3,50,CuCr2O4-Cr2O3,,310,130,CuCr2O4,Cr2O3,150,150,150,1,10,4.45,5914.996,1.11,886.911,0,0.223,1,3
10.1088/1361-6528/abc386,1050,227,0,Fe3O4,0,50,Fe3O4,28.5,858,838,Fe3O4,0,8.5,8.5,8.5,1,5,80,400,26,0,1,0,0,
10.1088/1361-6528/abc386,1051,227,227,Fe3O4,Zn0.4Co0.6Fe2O4,50,Fe3O4-Zn0.4Co0.6Fe2O4,164.8,800,858,Fe3O4,Zn0.4Co0.6Fe2O4,10.4,10.4,10.4,3,5,97,5400,77.35,178,0,0.35,1,
10.1088/1361-6528/abc386,1052,227,227,Fe3O4,Zn0.5Co0.5Fe2O4,50,Fe3O4-Zn0.5Co0.5Fe2O4,127.1,800,858,Fe3O4,Zn0.5Co0.5Fe2O4,10.9,10.9,10.9,3,5,99,4400,70.45,65,0,3.31,1,
10.1088/1361-6528/abc386,1053,227,227,Fe3O4,Zn0.6Co0.4Fe2O4,50,Fe3O4-Zn0.6Co0.4Fe2O4,153.5,800,858,Fe3O4,Zn0.6Co0.4Fe2O4,10.5,10.5,10.5,3,5,97,3700,73.2,55,0,0.54,1,
10.1088/1361-6528/abc386,1054,227,227,Fe3O4,Zn0.68Co0.32Fe2O4,50,Fe3O4-Zn0.68Co0.32Fe2O4,130.3,800,858,Fe3O4,Zn0.68Co0.32Fe2O4,10.7,10.7,10.7,3,5,87,3300,59,49,0,,1,
10.1088/1361-6528/abc386,1055,227,227,Fe3O4,Zn0.75Co0.25Fe2O4,50,Fe3O4-Zn0.75Co0.25Fe2O4,106.8,800,858,Fe3O4,Zn0.75Co0.25Fe2O4,10.9,10.9,10.9,3,5,89,1972.9,61.5,90.9,0,0.9,1,
10.1088/1361-6528/abc386,1056,227,227,Fe3O4,Zn0.82Co0.18Fe2O4,50,Fe3O4-Zn0.82Co0.18Fe2O4,99.3,800,858,Fe3O4,Zn0.82Co0.18Fe2O4,11,11,11,3,5,99.3,1800,60.825,82,1,0,0,
10.1088/2053-1591/abce87,1057,227,225,Fe3O4,Ag,15,Fe3O4-Ag,300,198,,Fe3O4,Ag,11,11,11,1,,53,157,12.5,8.3,0,0.74,1,
10.1016/j.matpr.2019.12.230,1058,92,167,Fe2O3,Fe2O3,50,Fe2O3-Fe2O3,200,948,850,Fe2O3,Fe2O3,20,20,20,1,30,40.235,368.8,12.7,9.9,0,0,0,0
10.1016/j.matpr.2019.12.230,1059,92,167,Fe2O3,Fe2O3,50,Fe2O3-Fe2O3,200,948,850,Fe2O3,Fe2O3,20,20,20,1,30,40.235,350.775,14,14.775,0,1,1,1
10.1016/j.matpr.2019.12.230,1060,92,167,Fe2O3,Fe2O3,50,Fe2O3-Fe2O3,200,948,850,Fe2O3,Fe2O3,20,20,20,1,30,40.235,296.7,11.675,9.85,0,0.5,1,2
10.1016/j.matpr.2019.12.230,1061,92,167,Fe2O3,Fe2O3,50,Fe2O3-Fe2O3,200,948,850,Fe2O3,Fe2O3,20,20,20,1,30,40.5,394.21,13.673,10.61,0,0.3,1,3
10.1016/j.matpr.2019.12.230,1062,92,167,Fe2O3,Fe2O3,50,Fe2O3-Fe2O3,200,948,850,Fe2O3,Fe2O3,20,20,20,1,30,41,394.21,13.673,12.31,0,0.3,1,4
10.1016/j.matpr.2019.12.230,1063,92,167,Fe2O3,Fe2O3,50,Fe2O3-Fe2O3,200,948,850,Fe2O3,Fe2O3,20,20,20,1,200,39,630.35,3.985,84.776,0,0.585,0,0