link,id,space_group_core,space_group_shell,core,shell,h_range_max_koe,chemical formula,Tb,TN,Tc,c1,c2,x,y,z,shape,temperature_k,sat_em_g,coer_oe,mr (emu/g),exc_bias_oe,exc_dir,ver_shift_emu_g,ver_s_dir,fc_field_t
10.1063/1.4771993,1,186,227,Zn1O1,Co1Fe2O4,50,ZnO-CoFe2O4,300,,793,ZnO,CoFe2O4,7.4,7.4,7.4,1,5,,27800,,1132,0,0,1,5
10.1063/1.4771993,2,225,227,Co1O1,Co1Fe2O4,50,CoO-CoFe2O4,276,293,843,CoO,CoFe2O4,7,7,7,1,5,,7800,,406,0,0,1,5
10.1016/j.jmmm.2022.170252,3,227,0,Mn0.50Zn0.50Fe2O4,0,10,Mn0.5Zn0.5Fe2O4,150,,640,Mn0.5Zn0.5Fe2O4,0,17,17,17,1,300,2.29,24.8,0.0078,51.34,1,0,1,0
10.1016/j.jmmm.2022.170252,4,227,0,Mn0.50Zn0.50Fe2O4,0,10,Mn0.5Zn0.5Fe2O4,150,,640,Mn0.5Zn0.5Fe2O4,0,11,11,11,1,300,2.43,90.2,0.0218,108.18,1,0,1,0
10.1016/j.jmmm.2022.170252,5,227,0,Mn0.50Zn0.50Fe2O4,0,10,Mn0.5Zn0.5Fe2O4,150,,640,Mn0.5Zn0.5Fe2O4,0,12,12,12,1,300,16.15,40.07,0.3498,8.92,1,0,1,0
10.1016/j.jmmm.2022.170252,6,227,0,Mn0.50Zn0.50Fe2O4,0,10,Mn0.5Zn0.5Fe2O4,150,,640,Mn0.5Zn0.5Fe2O4,0,18,18,18,1,300,18.75,47.13,0.6546,14.38,1,0,1,0
10.1016/j.jmmm.2022.170252,7,227,0,Mn0.50Zn0.50Fe2O4,0,10,Mn0.5Zn0.5Fe2O4,150,,640,Mn0.5Zn0.5Fe2O4,0,21,21,21,1,300,81.48,109.35,9.2738,2.83,1,0,1,0
10.3390/nano13101657,8,62,0,La1Fe1O3,0,60,LaFeO3,30,740,730,LaFeO3,0,27,27,27,1,5,1.3235,830,0.735,0,1,0.017,0,0
10.3390/nano13101657,9,62,0,La1Fe1O3,0,60,LaFeO3,30,740,730,LaFeO3,0,27,27,27,1,5,1.3529,894,0.735,255,0,0.04732,0,0.5
10.3390/nano13101657,10,62,0,La1Fe1O3,0,60,LaFeO3,30,740,730,LaFeO3,0,27,27,27,1,5,1.3529,910,0.735,296,0,0.01728,1,1
10.3390/nano13101657,11,62,0,La1Fe1O3,0,60,LaFeO3,30,740,730,LaFeO3,0,27,27,27,1,5,1.3823,945,0.735,344,0,0.04318,1,2
10.3390/nano13101657,12,62,0,La1Fe1O3,0,60,LaFeO3,30,740,730,LaFeO3,0,27,27,27,1,5,1.44117,1077,0.7,635,0,0.142857,1,5
10.3390/nano13101657,13,62,0,La1Fe1O3,0,60,LaFeO3,30,740,730,LaFeO3,0,36,36,36,1,5,0.65,894,0.0588,0,1,0.3,0,0
10.3390/nano13101657,14,62,0,La1Fe1O3,0,60,LaFeO3,30,740,730,LaFeO3,0,36,36,36,1,5,0.65,985,0.0588,229,0,0.0088,1,0.5
10.3390/nano13101657,15,62,0,La1Fe1O3,0,60,LaFeO3,30,740,730,LaFeO3,0,36,36,36,1,5,0.65,1016,0.0588,350,0,0.0176,1,1
10.3390/nano13101657,16,62,0,La1Fe1O3,0,60,LaFeO3,30,740,730,LaFeO3,0,36,36,36,1,5,0.66,1074,0.0588,502,0,0.023,1,2
10.3390/nano13101657,17,62,0,La1Fe1O3,0,60,LaFeO3,30,740,730,LaFeO3,0,36,36,36,1,5,0.66,1483,0.052,2157,0,0.084,1,5
10.1007/s10853-023-09277-7,18,225,225,Ni1,Ni1O1,2.5,Ni-NiO,31,525,668,Ni,NiO,30,30,30,1,8,26.6,634,21.5,130,0,0,1,1
10.1007/s10853-023-09277-7,19,225,225,Ni1,Ni1O1,2.5,Ni-NiO,31,525,668,Ni,NiO,30,30,30,1,8,26.4,641,21.5,137,0,0,1,1
10.1007/s10853-023-09277-7,20,225,225,Ni1,Ni1O1,2.5,Ni-NiO,31,525,668,Ni,NiO,30,30,30,1,8,15.2,379,8.9,38,0,0,1,1
10.1007/s10853-023-09277-7,21,225,225,Ni1,Ni1O1,2.5,Ni-NiO,31,525,668,Ni,NiO,30,30,30,1,8,14.7,547,10.7,73,0,0,1,1
10.1007/s10853-023-09277-7,22,225,225,Ni1,Ni1O1,2.5,Ni-NiO,31,525,668,Ni,NiO,30,30,30,1,8,16,534,13,81,0,0,1,1
10.1007/s10853-023-09277-7,23,225,225,Ni1,Ni1O1,2.5,Ni-NiO,31,525,668,Ni,NiO,30,30,30,1,8,16.5,756,12.8,109,0,0,1,1
doi.org/10.1016/j.jpcs.2021.110051,24,227,0,Mg1Fe2O4,0,20,MgFe2O4,573,673,673,MgFe2O4,0,12,12,12,5,300,12.75,8.45,0.14,0,1,0,1,0
doi.org/10.1016/j.jpcs.2021.110051,25,227,0,Mg1Fe2O4,0,20,MgFe2O4,573,673,673,MgFe2O4,0,16,16,16,5,300,18.61,9.88,0.34,0,1,0,1,0
doi.org/10.1016/j.jpcs.2021.110051,26,227,0,Mg1Fe2O4,0,20,MgFe2O4,573,673,673,MgFe2O4,0,24,24,24,2,300,24.52,22.34,1.24,0,1,0,1,0
doi.org/10.1016/j.jpcs.2021.110051,27,227,0,Mg1Fe2O4,0,20,MgFe2O4,573,673,673,MgFe2O4,0,33,33,33,2,300,29.42,59.66,3.81,0,1,0,1,0
doi.org/10.1016/j.jallcom.2021.161650,28,227,0,Co1Fe2O4,0,15,CoFe2O4,230,890,600,CoFe2O4,0,17.7,17.7,17.7,1,300,75,1400,32,0,1,0,1,0.5
doi.org/10.1016/j.jallcom.2021.161650,29,161,0,Bi1Fe1O3,0,15,BiFeO3,35,643,1098,BiFeO3,0,20.4,20.4,20.4,1,300,0.12,,0.03,0,1,0,1,0.5
doi.org/10.1016/j.jallcom.2021.161650,30,227,161,Co1Fe2O4,Bi1Fe1O3,60,CoFe2O4-BiFeO3,103,643,793,CoFe2O4,BiFeO3,24.3,24.3,24.3,1,350,74.595,902.2495,31.042,112.781,1,0,1,10
doi.org/10.1016/j.jallcom.2021.161650,31,227,161,Co1Fe2O4,Bi1Fe1O3,60,CoFe2O4-BiFeO3,103,643,793,CoFe2O4,BiFeO3,24.3,24.3,24.3,1,300,79.167,1316.317,39.222,226.736,1,0,1,10
doi.org/10.1016/j.jallcom.2021.161650,32,227,161,Co1Fe2O4,Bi1Fe1O3,60,CoFe2O4-BiFeO3,103,643,793,CoFe2O4,BiFeO3,32.9,32.9,32.9,1,250,83.259,1616.53,41.629,170,1,0,1,10
doi.org/10.1016/j.jallcom.2021.161650,33,227,161,Co1Fe2O4,Bi1Fe1O3,60,CoFe2O4-BiFeO3,103,643,793,CoFe2O4,BiFeO3,24.3,24.3,24.3,1,200,85.9,2594.2375,56,169.131,1,0,1,10
doi.org/10.1016/j.jallcom.2021.161650,34,227,161,Co1Fe2O4,Bi1Fe1O3,60,CoFe2O4-BiFeO3,103,643,720,CoFe2O4,BiFeO3,24.3,24.3,24.3,1,100,87,6052.7,67.858,112.78,1,0,1,10
doi.org/10.1016/j.jallcom.2021.161650,35,227,161,Co1Fe2O4,Bi1Fe1O3,60,CoFe2O4-BiFeO3,103,643,720,CoFe2O4,BiFeO3,32.9,32.9,32.9,1,50,87.5,7932.631,71.226,56.18,1,0,1,10
doi.org/10.1016/j.jallcom.2021.161650,36,227,161,Co1Fe2O4,Bi1Fe1O3,60,CoFe2O4-BiFeO3,103,643,720,CoFe2O4,BiFeO3,24.3,24.3,24.3,1,150,87.349,4116.89,63.046,90,1,0,1,10
doi.org/10.1016/j.jallcom.2021.161650,37,227,161,Co1Fe2O4,Bi1Fe1O3,60,CoFe2O4-BiFeO3,103,643,720,CoFe2O4,BiFeO3,32.9,32.9,32.9,1,5,87.83,8966,73.151,50,1,0,1,10
doi.org/10.3390/coatings11020122,38,194,225,Co1,Co1O1,6,Co-CoO,195,293,1661,Co,CoO,30,30,30,1,5,,538.42,,142.78,0,0,1,0.5
doi.org/10.3390/coatings11020122,39,194,225,Co1,Co1O1,6,Co-CoO,195,293,1661,Co,CoO,30,30,30,1,5,,434,,137.21,0,0,1,0.5
doi.org/10.3390/coatings11020122,40,194,225,Co1,Co1O1,6,Co-CoO,195,293,1661,Co,CoO,30,30,30,1,5,,280,,71,0,0,1,0.5
doi.org/10.3390/coatings11020122,41,194,225,Co1,Co1O1,6,Co-CoO,195,293,1661,Co,CoO,30,30,30,1,5,,532.96,,346.379,0,0,1,0.5
10.1016/j.matchemphys.2021.125252,42,221,0,Fe1Rh1,0,0.1,FeRh,27,370,370,FeRh,0,25,25,25,1,2,,1661.3845,,952.57,0,0,1,1
10.1016/j.matchemphys.2021.125252,43,221,0,Fe1Rh1,0,0.1,FeRh,27,353,370,FeRh,0,25,25,25,1,2,,1322.79,,629.898,0,0,1,1
10.1016/j.matchemphys.2021.125252,44,221,0,Fe1Rh1,0,0.1,FeRh,27,353,370,FeRh,0,25,25,25,1,2,,1070.862,,519.698,0,0,1,1
10.1016/j.matchemphys.2021.125252,45,221,0,Fe1Rh1,0,0.1,FeRh,27,353,370,FeRh,0,25,25,25,1,2,,881.8975,,472.1585,0,0,1,1
10.1016/j.matchemphys.2021.125252,46,221,0,Fe1Rh1,0,0.1,FeRh,27,353,370,FeRh,0,200,200,200,1,2,,806.3,,278.3,0,0,1,5
10.1016/j.matchemphys.2021.125252,47,221,0,Fe1Rh1,0,0.1,FeRh,27,353,370,FeRh,0,200,200,200,1,2,,697.695,,185.144,0,0,1,5
10.1016/j.matchemphys.2021.125252,48,221,0,Fe1Rh1,0,0.1,FeRh,27,353,370,FeRh,0,200,200,200,1,2,,636.065,,108.065,0,0,1,5
10.1016/j.matchemphys.2021.125252,49,221,0,Fe1Rh1,0,0.1,FeRh,27,353,370,FeRh,0,200,200,200,1,2,,604.83,,76.83,0,0,1,5
doi.org/10.1038/srep06641,50,87,0,Mn1O2,0,80,MnO2,92,42,140,MnO2,0,1000,20,0,6,5,6.9,145,0.022,440,0,0.07,1,1
doi.org/10.3390/nano6110221,51,225,227,Ag1,Fe3O4,4,Ag-Fe3O4,45,,858,Ag,Fe3O4,65,65,65,1,5,60,1186,16.22,551.72,0,0.848,1,5
doi.org/10.3390/nano6110221,52,225,227,Ag1,Fe3O4,4,Ag-Fe3O4,45,,858,Ag,Fe3O4,65,65,65,1,5,60,1186,16.22,551.72,0,0,1,1
doi.org/10.1088/0957-4484/26/40/405705,53,229,212,Fe1,Fe2O3,4,Fe-Fe2O3,110,948,1043,Fe,Fe2O3,11.65,11.65,11.65,1,5,384.57,2095.77,247.96,96.767,0,111.36,1,5
doi.org/10.1088/0957-4484/26/40/405705,54,229,212,Fe1,Fe2O3,4,Fe-Fe2O3,110,948,1043,Fe,Fe2O3,11.65,11.65,11.65,1,5,326.6,1812,155.91,1812,0,157.4,1,5
doi.org/10.1088/0957-4484/26/40/405705,55,229,212,Fe1,Fe2O3,4,Fe-Fe2O3,110,948,1043,Fe,Fe2O3,11.65,11.65,11.65,1,5,326.6,7238,117.337,7238,0,117,1,5
doi.org/10.1016/j.jmmm.2016.05.023,56,225,227,Fe1O1,Fe3O4,30,FeO-Fe3O4,266,200,858,FeO,Fe3O4,19.2,17.3,15.4,1,300,35,,5.14,93.2306,0,0,1,0
doi.org/10.1016/j.jmmm.2016.05.023,57,225,227,Fe1O1,Fe3O4,30,FeO-Fe3O4,266,200,858,FeO,Fe3O4,19.2,17.3,15.4,1,300,41,,8.954,82.0306,0,0,1,0
doi.org/10.1016/j.jmmm.2016.05.023,58,225,227,Fe1O1,Fe3O4,30,FeO-Fe3O4,266,200,858,FeO,Fe3O4,19.2,17.3,15.4,1,300,53,,10.8,82.0306,0,0,1,0
doi.org/10.1016/j.jmmm.2016.05.023,59,225,227,Fe1O1,Fe3O4,30,FeO-Fe3O4,266,200,858,FeO,Fe3O4,19.2,17.3,15.4,1,210,37.7,13,0.285,0,1,0,1,0
doi.org/10.1016/j.jmmm.2016.05.023,60,225,227,Fe1O1,Fe3O4,30,FeO-Fe3O4,266,200,858,FeO,Fe3O4,19.2,17.3,15.4,1,210,37.7,13,0.294,2.5,0,0,1,5
doi.org/10.1016/j.jmmm.2016.05.023,61,225,227,Fe1O1,Fe3O4,30,FeO-Fe3O4,266,200,858,FeO,Fe3O4,19.2,17.3,15.4,1,120,37,521,3.095,0,1,0,1,0
doi.org/10.1016/j.jmmm.2016.05.023,62,225,227,Fe1O1,Fe3O4,30,FeO-Fe3O4,266,200,858,FeO,Fe3O4,19.2,17.3,15.4,1,120,37,560,2.8,719,0,3.99,1,5
doi.org/10.1016/j.jmmm.2016.05.023,63,225,227,Fe1O1,Fe3O4,30,FeO-Fe3O4,266,200,858,FeO,Fe3O4,19.2,17.3,15.4,1,2,32.9,2202,5.149,0,1,0,1,0
doi.org/10.1016/j.jmmm.2016.05.023,64,225,227,Fe1O1,Fe3O4,30,FeO-Fe3O4,266,200,858,FeO,Fe3O4,19.2,17.3,15.4,1,2,33.6,3195.5,8.3485,2878.5,0,8.398,1,5
doi.org/10.1016/j.jmmm.2016.05.023,65,225,227,Fe1O1,Fe3O4,30,FeO-Fe3O4,266,200,858,FeO,Fe3O4,19.2,17.3,,1,2,54.8,628.5,13.33,0,1,0,1,0
doi.org/10.1016/j.jmmm.2016.05.023,66,225,227,Fe1O1,Fe3O4,30,FeO-Fe3O4,266,200,858,FeO,Fe3O4,19.2,17.3,,1,2,54.8,767,22.313,329,0,9.188,1,5
doi.org/10.1038/s41598-020-75669-3,67,225,0,Ni1O1,0,15,NiO,5,523,720,NiO,0,34.4,10.97,,6,300,0.18,87.02,2.65,0,1,0,1,0
doi.org/10.1038/s41598-020-75669-3,68,227,0,Fe3O4,0,15,Fe3O4,118,858,858,Fe3O4,0,33,33,33,1,300,70.264,22.41,1.65,0,1,0,1,0
doi.org/10.1038/s41598-020-75669-3,69,225,227,Fe3O4,Ni1O1,15,Fe3O4-NiO,289,796,858,Fe3O4,NiO,52.02,52.02,52.02,1,300,31.33,37.09,1.35,0,1,0,1,0
doi.org/10.1038/s41598-020-75669-3,70,227,225,Ni1O1,Fe3O4,15,NiO-Fe3O4,,375,860,NiO,Fe3O4,31.75,31.75,31.75,1,300,40.03,100.29,2.16,0,1,0,1,0
doi.org/10.1038/s41598-020-75669-3,71,225,227,Fe3O4,Ni1O1,15,Fe3O4-NiO,289,796,858,Fe3O4,NiO,52.02,52.02,52.02,1,60,33,95.69,8.6,329.43,0,8.6,1,2.414
doi.org/10.1038/s41598-020-75669-3,72,227,225,Ni1O1,Fe3O4,15,NiO-Fe3O4,,375,860,NiO,Fe3O4,31.75,31.75,31.75,1,60,44.89,145.18,8.16,145.18,1,8.16,0,1.214
doi.org/10.1016/j.jmmm.2019.165783,73,55,161,Bi2Fe4O9,Bi1Fe1O3,50,Bi2Fe4O9-BiFeO3,60,643,,Bi2Fe4O9,BiFeO3,19,19,19,1,2,,1300,0.052,1600,0,0.053,1,5
doi.org/10.1016/j.jmmm.2019.165783,74,161,55,Bi1Fe1O3,Bi2Fe4O9,50,BiFeO3-Bi2Fe4O9,60,590,,BiFeO3,Bi2Fe4O9,13,13,13,1,2,,1225,0.046,1825,1,0.054,1,5
doi.org/10.1016/j.jmmm.2019.165783,75,161,55,Bi1Fe1O3,Bi2Fe4O9,50,BiFeO3-Bi2Fe4O9,60,590,,BiFeO3,Bi2Fe4O9,19,19,19,1,2,,900,0.0365,1500,0,0.058,1,5
doi.org/10.1016/j.jmmm.2019.165783,76,161,55,Bi1Fe1O3,Bi2Fe4O9,50,BiFeO3-Bi2Fe4O9,60,590,,BiFeO3,Bi2Fe4O9,13,13,13,1,2,,750,0.049,1650,1,0.061,1,5
doi.org/10.3390/magnetochemistry8120165 ,77,136,213,Ti1O2,Fe2O3,40,TiO2-Fe2O3,217.5,948,577,TiO2,Fe2O3,12.9,12.9,12.9,1,2,52,449.38,17.6,9.41,1,0,1,0
doi.org/10.3390/magnetochemistry8120165 ,78,136,213,Ti1O2,Fe2O3,40,TiO2-Fe2O3,217.5,948,577,TiO2,Fe2O3,12.9,12.9,12.9,1,2,51.385,477.614,22.13,84.7,0,3.77,1,1
doi.org/10.3390/magnetochemistry8120165 ,79,136,213,Ti1O2,Fe2O3,60,TiO2-Fe2O3,187.5,948,577,TiO2,Fe2O3,12.9,12.9,12.9,1,2,52.18,471.34,21.98,71.36,0,3.3,1,2
doi.org/10.3390/magnetochemistry8120165 ,80,136,213,Ti1O2,Fe2O3,60,TiO2-Fe2O3,,948,577,TiO2,Fe2O3,12.9,12.9,12.9,1,2,,453.4,21.963,64.764,0,2.8,1,4
doi.org/10.3390/magnetochemistry8120165 ,81,136,213,Ti1O2,Fe2O3,40,TiO2-Fe2O3,217.5,948,577,TiO2,Fe2O3,12.9,12.9,12.9,1,10,50.3,415,17.09,5,1,0,1,0
doi.org/10.3390/magnetochemistry8120165 ,82,136,213,Ti1O2,Fe2O3,40,TiO2-Fe2O3,217.5,948,577,TiO2,Fe2O3,12.9,12.9,12.9,1,10,50.275,429,19.818,49.725,0,2.546,1,1
doi.org/10.3390/magnetochemistry8120165 ,83,136,213,Ti1O2,Fe2O3,60,TiO2-Fe2O3,187.5,948,577,TiO2,Fe2O3,12.9,12.9,12.9,1,10,48.91,421.24,19.4,41.96,0,2.4,1,3
doi.org/10.3390/magnetochemistry8120165 ,84,136,213,Ti1O2,Fe2O3,40,TiO2-Fe2O3,217.5,948,577,TiO2,Fe2O3,12.9,12.9,12.9,1,100,51,55.122,3.195,2.42,1,0,1,0
doi.org/10.3390/magnetochemistry8120165 ,85,136,213,Ti1O2,Fe2O3,40,TiO2-Fe2O3,217.5,948,577,TiO2,Fe2O3,12.9,12.9,12.9,1,100,48.85,53.78,3.345,2.42,1,0.1,0,1
doi.org/10.3390/magnetochemistry8120165 ,86,136,213,Ti1O2,Fe2O3,60,TiO2-Fe2O3,187.5,948,577,TiO2,Fe2O3,12.9,12.9,12.9,1,100,50.6,53,3.375,2.42,1,0.66,0,2
doi.org/10.3390/magnetochemistry8120165 ,87,136,213,Ti1O2,Fe2O3,40,TiO2-Fe2O3,217.5,948,577,TiO2,Fe2O3,12.9,12.9,12.9,1,300,52.5,20.115,1.442,1.355,1,0,1,0
doi.org/10.3390/magnetochemistry8120165 ,88,136,213,Ti1O2,Fe2O3,40,TiO2-Fe2O3,217.5,948,577,TiO2,Fe2O3,12.9,12.9,12.9,1,300,46.11,19.88,1.438,0.6585,0,0.139,0,1
doi.org/10.3390/magnetochemistry8120165 ,89,136,213,Ti1O2,Fe2O3,60,TiO2-Fe2O3,187.5,948,577,TiO2,Fe2O3,12.9,12.9,12.9,1,300,45.78,20.814,1.5775,0.659,0,0.0695,0,2
doi.org/10.1007/s10854-021-07606-7,90,227,0,Fe3O4,0,20,Fe3O4,118,858,858,Fe3O4,0,15,15,15,1,5,57,624.1,33.04,15,0,3.8,1,3
doi.org/10.1007/s10854-021-07606-7,91,227,0,Co0.4Fe2.6O4,0,20,Co0.4Fe2.6O4,200,,793,Co0.4Fe2.6O4,0,16.8,16.8,16.8,1,5,55,8336,43.5,52,0,2.15,1,3
doi.org/10.1007/s10854-021-07606-7,92,227,0,Co0.7Fe2.3O4,0,20,Co0.7Fe2.3O4,200,,793,Co0.7Fe2.3O4,0,18.6,18.6,18.6,1,5,51,10760,36.47,70,0,0,1,3
doi.org/10.1007/s10854-021-07606-7,93,227,0,Co1Fe2O4,0,20,CoFe2O4,398,890,789,CoFe2O4,0,20,20,20,1,5,45,14563,32.22,20,0,2.48,1,3
doi.org/10.1038/s41598-018-19676-5,94,161,0,Bi1Fe1O3,0,50,BiFeO3,35,643,683,BiFeO3,0,18,18,18,1,10,1.259,1219.58,0.0485,1219.58,0,0.0485,1,6.5
doi.org/10.1038/s41598-018-19676-5,95,161,0,Bi1Fe1O3,0,50,BiFeO3,35,643,683,BiFeO3,0,18,18,18,1,130,0.8455,429.82,0.0105,1182,0,0.031,1,6.5
doi.org/10.1038/s41598-018-19676-5,96,161,0,Bi1Fe1O3,0,50,BiFeO3,35,643,683,BiFeO3,0,18,18,18,1,300,0.646,1500,0.025,342.15,1,0.006,1,6.5
doi.org/10.1038/s41598-018-19676-5,97,161,0,Bi1Fe1O3,0,50,BiFeO3,35,643,683,BiFeO3,0,18,18,18,1,10,1.24,1361.93,0.057,0,1,0,1,0
doi.org/10.1038/s41598-018-19676-5,98,161,0,Bi1Fe1O3,0,50,BiFeO3,35,643,683,BiFeO3,0,18,18,18,1,130,0.84,901.82,0.025,0,1,0,1,0
doi.org/10.1038/s41598-018-19676-5,99,161,0,Bi1Fe1O3,0,50,BiFeO3,35,643,683,BiFeO3,0,18,18,18,1,300,0.672,2309.79,0.039,0,1,0,1,0
doi.org/10.1007/s10948-017-4389-6,100,229,0,Fe0.7Co0.3,0,30,Fe0.7Co0.3,300,,800,Fe0.7Co0.3,0,45,45,45,3,10,63,3999.6,34.3,0.1,0,0,1,1.4
doi.org/10.1007/s10948-017-4389-6,101,229,0,Fe0.7Co0.3,0,30,Fe0.7Co0.3,300,,800,Fe0.7Co0.3,0,48,48,48,3,150,59.95,1299.65,28,399.95,1,0,1,1.4
doi.org/10.1007/s10948-017-4389-6,102,229,0,Fe0.7Co0.3,0,30,Fe0.7Co0.3,300,,800,Fe0.7Co0.3,0,51,51,51,3,300,55.4,849.7,22.25,49.9,1,0,1,1.2
doi.org/10.1007/s10948-017-4389-6,103,229,0,Fe0.5Co0.5,0,30,Fe0.5Co0.5,300,,800,Fe0.5Co0.5,0,45,45,45,3,10,97.3,2899.7,39.33,0,1,0.656,1,2
doi.org/10.1007/s10948-017-4389-6,104,229,0,Fe0.5Co0.5,0,30,Fe0.5Co0.5,300,,800,Fe0.5Co0.5,0,48,48,48,3,150,97.45,1499,32,0,1,1.744,1,2.2
doi.org/10.1007/s10948-017-4389-6,105,229,0,Fe0.5Co0.5,0,30,Fe0.5Co0.5,300,,800,Fe0.5Co0.5,0,51,51,51,3,300,90.95,799.65,21,0.05,1,0.43,1,2
doi.org/10.1007/s10948-017-4389-6,106,229,0,Fe0.3Co0.7,0,30,Fe0.3Co0.7,300,,800,Fe0.3Co0.7,0,45,45,45,3,10,18.3,3999.65,21.6,0.05,1,0,1,1.4
doi.org/10.1007/s10948-017-4389-6,107,229,0,Fe0.3Co0.7,0,30,Fe0.3Co0.7,300,,800,Fe0.3Co0.7,0,48,48,48,3,150,13,2299.75,18,99.95,1,0,1,1.4
doi.org/10.1007/s10948-017-4389-6,108,229,0,Fe0.3Co0.7,0,30,Fe0.3Co0.7,300,,800,Fe0.3Co0.7,0,51,51,51,3,300,10.85,1099.75,11.7,0.05,0,0,1,1.2
doi.org/10.1039/C3NR02596A,109,225,227,Fe1O1,Fe3O4,60,FeO-Fe3O4,390,198,860,FeO,Fe3O4,20,20,20,3,5,24.75,1804.3,7.735,1804,0,7.735,1,7
doi.org/10.1039/C3NR02596A,110,225,227,Fe1O1,Fe3O4,60,FeO-Fe3O4,330,198,860,FeO,Fe3O4,16,16,16,1,5,25.45,1620.97,10.5,781.28,0,3.74,1,7
doi.org/10.1039/C3NR02596A,111,225,227,Fe1O1,Fe3O4,60,FeO-Fe3O4,266,200,860,FeO,Fe3O4,25,25,25,7,5,19.21,2044.82,7.1,1022,0,3.717,1,7
doi.org/10.1103/PhysRevB.78.174414,112,225,227,Fe1O1,Fe3O4,50,FeO-Fe3O4,266,200,860,FeO,Fe3O4,14,14,14,2,20,20,681.83,10,471,0,0,1,0.1
doi.org/10.1021/nl2034514,113,225,227,Fe1O1,Fe3O4,20,FeO-Fe3O4,266,200,860,FeO,Fe3O4,32,32,32,3,2,54.36,2762,6.795,2762,0,3.125,1,1
doi.org/10.1021/nl2034514,114,225,227,Fe1O1,Fe3O4,20,FeO-Fe3O4,266,200,860,FeO,Fe3O4,35,35,35,3,2,31.729,2396.15,9.495,2250,0,2,1,1
doi.org/10.1021/nl2034514,115,225,227,Fe1O1,Fe3O4,20,FeO-Fe3O4,266,200,860,FeO,Fe3O4,35,35,35,5,2,44.14,959.2,13.638,583,0,7.934,1,1
doi.org/10.1103/PhysRevB.80.134418,116,229,62,Fe1,Fe3O4,10,Fe-Fe3O4,115,856,860,Fe,Fe3O4,13.8,13.8,13.8,1,5,31,1897,28.9,1190,0,0,1,1
doi.org/10.1103/PhysRevB.80.134418,117,62,0,Fe3O4,0,10,Fe3O4,118,858,858,Fe3O4,0,16,16,16,1,5,84,862,76.8,133,0,0.4476,1,1
doi.org/10.3390/nano12030456,118,229,212,Fe1,Fe2O3,60,Fe-Fe2O3,110,948,985,Fe,Fe2O3,15,15,15,1,30,15.1225,1361.79,,20,0,0.3699,1,5
doi.org/10.3390/nano12030456,119,229,212,Fe1,Fe2O3,60,Fe-Fe2O3,110,948,985,Fe,Fe2O3,10,10,10,1,15,15.2465,2544.74,,1071.526,0,0.514774,1,5
doi.org/10.3390/nano12030456,120,229,212,Fe1,Fe2O3,60,Fe-Fe2O3,110,948,985,Fe,Fe2O3,8,8,8,1,10,15.2465,2545,,2188,0,0.626774,1,5
doi.org/10.3390/nano12030456,121,229,212,Fe1,Fe2O3,60,Fe-Fe2O3,110,948,985,Fe,Fe2O3,15,15,15,1,5,,,,1600,0,0,1,1
doi.org/10.3390/nano12030456,122,229,212,Fe1,Fe2O3,60,Fe-Fe2O3,110,948,985,Fe,Fe2O3,10,10,10,1,5,,,,3500,0,0.000912,1,1
doi.org/10.3390/nano12030456,123,225,227,Fe1O1,Fe3O4,50,FeO-Fe3O4,386,335,860,FeO,Fe3O4,18,18,18,2,300,38.9,1538.46,16.23,1000,0,0,1,0
doi.org/10.3390/nano12030456,124,229,212,Fe1,Fe2O3,10,Fe-Fe2O3,110,948,985,Fe,Fe2O3,11.3,11.3,11.3,1,5,0.989,10873.37,0.9845,22459,0,2.046,1,7
doi.org/10.3390/nano12030456,125,229,212,Fe1,Fe2O3,10,Fe-Fe2O3,110,948,985,Fe,Fe2O3,11.3,11.3,11.3,1,5,5.227,14972.9325,1.3525,18003,0,1.957,1,9
doi.org/10.3390/nano12030456,126,229,212,Fe1,Fe2O3,20,Fe-Fe2O3,110,948,985,Fe,Fe2O3,17.9,17.9,17.9,1,5,,,,140,0,0.926,1,2
doi.org/10.3390/nano12030456,127,229,212,Fe1,Fe2O3,20,Fe-Fe2O3,110,948,985,Fe,Fe2O3,23.3,23.3,23.3,1,5,20.862,1359.636,7.2,964.9,0,4.79,1,1.36
doi.org/10.1007/s10854-021-06343-1,128,62,0,La2Fe1Mn1O6,0,15,La2FeMnO6,236,,262,La2FeMnO6,0,,,,1,15,7.538,933.92,0.78,932,0,0.01,0,0.1
doi.org/10.1007/s10854-021-06343-1,129,62,0,La2Fe1Mn1O6,0,15,La2FeMnO6,236,,262,La2FeMnO6,0,,,,1,50,5.942,206,0.5365,865.6,0,0.0315,0,0.1
doi.org/10.1007/s10854-021-06343-1,130,62,0,La2Fe1Mn1O6,0,15,La2FeMnO6,236,,262,La2FeMnO6,0,,,,1,100,20.87,176.327,0.222,122.374,0,0.02,0,0.1
doi.org/10.1007/s10854-021-06343-1,131,62,0,La2Fe1Mn1O6,0,15,La2FeMnO6,236,,262,La2FeMnO6,0,,,,1,250,,919.3,,510.4,0,0.000875,1,0.1
doi.org/10.1007/s10854-021-06343-1,132,1,227,Fe1V1O4,Fe3O4,10,FeVO4-Fe3O4,50,40,858,FeVO4,Fe3O4,40,40,40,1,5,,107,,13,0,0.002,0,2
doi.org/10.1007/s11664-019-07083-z,133,1,227,Fe1V1O4,Fe3O4,10,FeVO4-Fe3O4,50,40,858,FeVO4,Fe3O4,40,40,40,1,5,,450,,78,0,0.00626,0,2
doi.org/10.1007/s10948-017-4218-y,134,221,0,La1Fe1O3,0,20,LaFeO3,30,740,730,LaFeO3,0,44,44,44,1,300,0.0025,5250,0.00091,650,0,0,1,0
doi.org/10.1007/s10948-017-4218-y,135,221,0,La1Fe1O3,0,20,LaFeO3,30,740,730,LaFeO3,0,49,49,49,1,300,0.0035,4750,0.000363,254,0,0,1,0
doi.org/10.1007/s10948-017-4218-y,136,221,0,La1Fe1O3,0,20,LaFeO3,30,740,730,LaFeO3,0,64,64,64,1,300,0.0035,1750,0.000227,250,0,0,1,0
doi.org/10.1007/s10948-017-4218-y,137,221,0,La1Fe1O3,0,20,LaFeO3,30,740,730,LaFeO3,0,44,44,44,1,10,,1000,,2275,0,35,1,8
doi.org/10.1007/s10948-017-4218-y,138,221,0,La1Fe1O3,0,20,LaFeO3,30,740,730,LaFeO3,0,49,49,49,1,10,,1125,,2120,0,35,1,8
doi.org/10.1007/s10948-017-4218-y,139,221,0,La1Fe1O3,0,20,LaFeO3,30,740,730,LaFeO3,0,64,64,64,1,10,,750,,800,0,0,1,8
doi.org/10.1007/s10948-016-3520-4,140,62,0,La1Fe1O3,0,10,LaFeO3,30,740,730,LaFeO3,0,37.86,37.86,37.86,1,300,0.0045,5275.5,0.0037,511.81,0,0,1,0
doi.org/10.1007/s10948-016-3520-4,141,62,0,La1Fe1O3,0,10,LaFeO3,30,740,730,LaFeO3,0,43,43,43,1,10,0.0047,1063.17,0.00225,1972,0,0.000145,1,0.8
doi.org/10.1103/PhysRevB.92.054416,142,225,227,Au1,Fe3O4,60,Au-Fe3O4,59,,858,Au,Fe3O4,11.9,11.9,11.9,1,2,,3257.5,,1814.6,0,0.626774,1,5
doi.org/10.1103/PhysRevB.92.054416,143,225,227,Au1,Fe3O4,60,Au-Fe3O4,59,,858,Au,Fe3O4,11.9,11.9,11.9,1,2,,,,1350,0,0.463974,1,5
doi.org/10.1103/PhysRevB.92.054416,144,225,227,Au1,Fe3O4,60,Au-Fe3O4,59,,858,Au,Fe3O4,10.5,10.5,10.5,1,100,,502.31,,502,0,0.77266,1,5
doi.org/10.1103/PhysRevB.92.054416,145,227,0,Fe3O4,0,60,Fe3O4,30,858,858,Fe3O4,0,9.8,9.8,9.8,1,200,,181,,181,0,1.3638,1,5